65943192
  CDK     0101151218

 41 42  0  0  0  0  0  0  0  0999 V2000
    2.8090    2.6030    0.0000 S   0  0  0  0  0  0  0  0  0  0  0  0
    6.8443   -2.8926    0.0000 O   0  0  0  0  0  0  0  0  0  0  0  0
    5.1928   -0.0526    0.0000 O   0  0  0  0  0  0  0  0  0  0  0  0
    7.0949   -0.6707    0.0000 N   0  0  0  0  0  0  0  0  0  0  0  0
    5.7281    1.5946    0.0000 N   0  0  0  0  0  0  0  0  0  0  0  0
    7.3890   -2.0540    0.0000 C   0  0  0  0  0  0  0  0  0  0  0  0
    7.9336   -1.2153    0.0000 C   0  0  0  0  0  0  0  0  0  0  0  0
    6.5503   -1.5093    0.0000 C   0  0  0  0  0  0  0  0  0  0  0  0
    8.2276   -2.5986    0.0000 C   0  0  0  0  0  0  0  0  0  0  0  0
    6.8870    0.3075    0.0000 C   0  0  0  0  0  0  0  0  0  0  0  0
    8.1753   -3.5972    0.0000 C   0  0  0  0  0  0  0  0  0  0  0  0
    5.9360    0.6165    0.0000 C   0  0  0  0  0  0  0  0  0  0  0  0
    9.0140   -4.1419    0.0000 C   0  0  0  0  0  0  0  0  0  0  0  0
    4.7770    1.9037    0.0000 C   0  0  0  0  0  0  0  0  0  0  0  0
    4.5691    2.8818    0.0000 C   0  0  0  0  0  0  0  0  0  0  0  0
    3.6180    3.1908    0.0000 C   0  0  0  0  0  0  0  0  0  0  0  0
    3.3090    4.1419    0.0000 C   0  0  0  0  0  0  0  0  0  0  0  0
    2.3090    4.1419    0.0000 C   0  0  0  0  0  0  0  0  0  0  0  0
    2.0000    3.1908    0.0000 C   0  0  0  0  0  0  0  0  0  0  0  0
    8.4536   -1.5530    0.0000 H   0  0  0  0  0  0  0  0  0  0  0  0
    8.2713   -0.6953    0.0000 H   0  0  0  0  0  0  0  0  0  0  0  0
    6.0303   -1.1717    0.0000 H   0  0  0  0  0  0  0  0  0  0  0  0
    6.2126   -2.0293    0.0000 H   0  0  0  0  0  0  0  0  0  0  0  0
    8.8318   -2.7381    0.0000 H   0  0  0  0  0  0  0  0  0  0  0  0
    8.4699   -2.0279    0.0000 H   0  0  0  0  0  0  0  0  0  0  0  0
    7.5066    0.3291    0.0000 H   0  0  0  0  0  0  0  0  0  0  0  0
    6.9733    0.9214    0.0000 H   0  0  0  0  0  0  0  0  0  0  0  0
    7.5712   -3.4578    0.0000 H   0  0  0  0  0  0  0  0  0  0  0  0
    7.9330   -4.1680    0.0000 H   0  0  0  0  0  0  0  0  0  0  0  0
    6.2252   -2.8602    0.0000 H   0  0  0  0  0  0  0  0  0  0  0  0
    8.6763   -4.6619    0.0000 H   0  0  0  0  0  0  0  0  0  0  0  0
    9.5340   -4.4796    0.0000 H   0  0  0  0  0  0  0  0  0  0  0  0
    9.3516   -3.6219    0.0000 H   0  0  0  0  0  0  0  0  0  0  0  0
    6.1888    2.0095    0.0000 H   0  0  0  0  0  0  0  0  0  0  0  0
    4.1574    1.8820    0.0000 H   0  0  0  0  0  0  0  0  0  0  0  0
    4.6907    1.2897    0.0000 H   0  0  0  0  0  0  0  0  0  0  0  0
    5.1887    2.9034    0.0000 H   0  0  0  0  0  0  0  0  0  0  0  0
    4.6554    3.4958    0.0000 H   0  0  0  0  0  0  0  0  0  0  0  0
    3.6734    4.6435    0.0000 H   0  0  0  0  0  0  0  0  0  0  0  0
    1.9446    4.6435    0.0000 H   0  0  0  0  0  0  0  0  0  0  0  0
    1.4103    2.9992    0.0000 H   0  0  0  0  0  0  0  0  0  0  0  0
  1 16  1  0  0  0  0 
  1 19  1  0  0  0  0 
  2  6  1  0  0  0  0 
  2 30  1  0  0  0  0 
  3 12  2  0  0  0  0 
  4  7  1  0  0  0  0 
  4  8  1  0  0  0  0 
  4 10  1  0  0  0  0 
  5 12  1  0  0  0  0 
  5 14  1  0  0  0  0 
  5 34  1  0  0  0  0 
  6  7  1  0  0  0  0 
  6  8  1  0  0  0  0 
  6  9  1  0  0  0  0 
  7 20  1  0  0  0  0 
  7 21  1  0  0  0  0 
  8 22  1  0  0  0  0 
  8 23  1  0  0  0  0 
  9 11  1  0  0  0  0 
  9 24  1  0  0  0  0 
  9 25  1  0  0  0  0 
 10 12  1  0  0  0  0 
 10 26  1  0  0  0  0 
 10 27  1  0  0  0  0 
 11 13  1  0  0  0  0 
 11 28  1  0  0  0  0 
 11 29  1  0  0  0  0 
 13 31  1  0  0  0  0 
 13 32  1  0  0  0  0 
 13 33  1  0  0  0  0 
 14 15  1  0  0  0  0 
 14 35  1  0  0  0  0 
 14 36  1  0  0  0  0 
 15 16  1  0  0  0  0 
 15 37  1  0  0  0  0 
 15 38  1  0  0  0  0 
 16 17  2  0  0  0  0 
 17 18  1  0  0  0  0 
 17 39  1  0  0  0  0 
 18 19  2  0  0  0  0 
 18 40  1  0  0  0  0 
 19 41  1  0  0  0  0 
M  END
> <cdk:Title>
65943192

> <cdk:Remark>
null

> <PUBCHEM_COMPOUND_CID>
65943192

> <PUBCHEM_COMPOUND_CANONICALIZED>
1

> <PUBCHEM_CACTVS_COMPLEXITY>
306

> <PUBCHEM_CACTVS_HBOND_ACCEPTOR>
4

> <PUBCHEM_CACTVS_HBOND_DONOR>
2

> <PUBCHEM_CACTVS_ROTATABLE_BOND>
7

> <PUBCHEM_CACTVS_SUBSKEYS>
AAADceBzMABAAAAAAAAAAAAAAABYASAAAAAAAAAAAAAAAAABgAAAHgQQCAAADETF0ASyAYPAAgiMACFSEAADAIAgCBBIiJiIAIgKYCKgkTGUQAAklgC4iAcQAAAMAAAAAAAAAAAAAAAAAAAAAAAAAAAAAA==

> <PUBCHEM_IUPAC_OPENEYE_NAME>
2-(3-hydroxy-3-propyl-azetidin-1-yl)-N-[2-(2-thienyl)ethyl]acetamide

> <PUBCHEM_IUPAC_CAS_NAME>
2-(3-hydroxy-3-propyl-1-azetidinyl)-N-(2-thiophen-2-ylethyl)acetamide

> <PUBCHEM_IUPAC_NAME>
2-(3-hydroxy-3-propylazetidin-1-yl)-N-(2-thiophen-2-ylethyl)acetamide

> <PUBCHEM_IUPAC_SYSTEMATIC_NAME>
2-(3-oxidanyl-3-propyl-azetidin-1-yl)-N-(2-thiophen-2-ylethyl)ethanamide

> <PUBCHEM_IUPAC_TRADITIONAL_NAME>
2-(3-hydroxy-3-propyl-azetidin-1-yl)-N-[2-(2-thienyl)ethyl]acetamide

> <PUBCHEM_IUPAC_INCHI>
InChI=1S/C14H22N2O2S/c1-2-6-14(18)10-16(11-14)9-13(17)15-7-5-12-4-3-8-19-12/h3-4,8,18H,2,5-7,9-11H2,1H3,(H,15,17)

> <PUBCHEM_IUPAC_INCHIKEY>
LLMFFBRHIUKONK-UHFFFAOYSA-N

> <PUBCHEM_XLOGP3_AA>
1.5

> <PUBCHEM_EXACT_MASS>
282.140199

> <PUBCHEM_MOLECULAR_FORMULA>
C14H22N2O2S

> <PUBCHEM_MOLECULAR_WEIGHT>
282.40168

> <PUBCHEM_OPENEYE_CAN_SMILES>
CCCC1(CN(C1)CC(=O)NCCC2=CC=CS2)O

> <PUBCHEM_OPENEYE_ISO_SMILES>
CCCC1(CN(C1)CC(=O)NCCC2=CC=CS2)O

> <PUBCHEM_CACTVS_TPSA>
80.8

> <PUBCHEM_MONOISOTOPIC_WEIGHT>
282.140199

> <PUBCHEM_TOTAL_CHARGE>
0

> <PUBCHEM_HEAVY_ATOM_COUNT>
19

> <PUBCHEM_ATOM_DEF_STEREO_COUNT>
0

> <PUBCHEM_ATOM_UDEF_STEREO_COUNT>
0

> <PUBCHEM_BOND_DEF_STEREO_COUNT>
0

> <PUBCHEM_BOND_UDEF_STEREO_COUNT>
0

> <PUBCHEM_ISOTOPIC_ATOM_COUNT>
0

> <PUBCHEM_COMPONENT_COUNT>
1

> <PUBCHEM_CACTVS_TAUTO_COUNT>
2

> <PUBCHEM_COORDINATE_TYPE>
1

> <PUBCHEM_BONDANNOTATIONS>
1  16  8

$$$$
