64799108
  CDK     0202151413

 42 44  0  0  0  0  0  0  0  0999 V2000
    5.6808    1.8399    0.0000 N   0  0  0  0  0  0  0  0  0  0  0  0
    4.7026    1.6320    0.0000 N   0  0  0  0  0  0  0  0  0  0  0  0
    3.7320   -0.8626    0.0000 N   0  0  0  0  0  0  0  0  0  0  0  0
    3.7320   -3.8626    0.0000 N   0  0  0  0  0  0  0  0  0  0  0  0
    6.0875    2.7534    0.0000 C   0  0  0  0  0  0  0  0  0  0  0  0
    7.0656    2.9613    0.0000 C   0  0  0  0  0  0  0  0  0  0  0  0
    5.5875    3.6194    0.0000 C   0  0  0  0  0  0  0  0  0  0  0  0
    7.1702    3.9558    0.0000 C   0  0  0  0  0  0  0  0  0  0  0  0
    6.2566    4.3626    0.0000 C   0  0  0  0  0  0  0  0  0  0  0  0
    6.1808    0.9738    0.0000 C   0  0  0  0  0  0  0  0  0  0  0  0
    4.5981    0.6374    0.0000 C   0  0  0  0  0  0  0  0  0  0  0  0
    5.5116    0.2307    0.0000 C   0  0  0  0  0  0  0  0  0  0  0  0
    3.7320    0.1374    0.0000 C   0  0  0  0  0  0  0  0  0  0  0  0
    2.8660   -1.3626    0.0000 C   0  0  3  0  0  0  0  0  0  0  0  0
    2.8660   -2.3626    0.0000 C   0  0  0  0  0  0  0  0  0  0  0  0
    2.0000   -0.8626    0.0000 C   0  0  0  0  0  0  0  0  0  0  0  0
    2.0000   -2.8626    0.0000 C   0  0  0  0  0  0  0  0  0  0  0  0
    3.7320   -2.8626    0.0000 C   0  0  0  0  0  0  0  0  0  0  0  0
    2.0000   -3.8626    0.0000 C   0  0  0  0  0  0  0  0  0  0  0  0
    2.8660   -4.3626    0.0000 C   0  0  0  0  0  0  0  0  0  0  0  0
    6.4777    2.2716    0.0000 H   0  0  0  0  0  0  0  0  0  0  0  0
    7.1304    2.3447    0.0000 H   0  0  0  0  0  0  0  0  0  0  0  0
    7.6856    2.9613    0.0000 H   0  0  0  0  0  0  0  0  0  0  0  0
    5.1726    4.0802    0.0000 H   0  0  0  0  0  0  0  0  0  0  0  0
    5.0859    3.2550    0.0000 H   0  0  0  0  0  0  0  0  0  0  0  0
    7.7766    3.8269    0.0000 H   0  0  0  0  0  0  0  0  0  0  0  0
    7.3618    4.5455    0.0000 H   0  0  0  0  0  0  0  0  0  0  0  0
    6.5666    4.8995    0.0000 H   0  0  0  0  0  0  0  0  0  0  0  0
    5.7550    4.7270    0.0000 H   0  0  0  0  0  0  0  0  0  0  0  0
    6.7974    0.9090    0.0000 H   0  0  0  0  0  0  0  0  0  0  0  0
    5.6405   -0.3758    0.0000 H   0  0  0  0  0  0  0  0  0  0  0  0
    3.5200    0.7200    0.0000 H   0  0  0  0  0  0  0  0  0  0  0  0
    3.1215    0.0298    0.0000 H   0  0  0  0  0  0  0  0  0  0  0  0
    2.8660   -0.7426    0.0000 H   0  0  0  0  0  0  0  0  0  0  0  0
    4.2690   -1.1726    0.0000 H   0  0  0  0  0  0  0  0  0  0  0  0
    2.3100   -0.3256    0.0000 H   0  0  0  0  0  0  0  0  0  0  0  0
    1.4631   -0.5526    0.0000 H   0  0  0  0  0  0  0  0  0  0  0  0
    1.6900   -1.3995    0.0000 H   0  0  0  0  0  0  0  0  0  0  0  0
    1.4631   -2.5526    0.0000 H   0  0  0  0  0  0  0  0  0  0  0  0
    4.2690   -2.5526    0.0000 H   0  0  0  0  0  0  0  0  0  0  0  0
    1.4631   -4.1726    0.0000 H   0  0  0  0  0  0  0  0  0  0  0  0
    2.8660   -4.9826    0.0000 H   0  0  0  0  0  0  0  0  0  0  0  0
  1  2  1  0  0  0  0 
  1  5  1  0  0  0  0 
  1 10  1  0  0  0  0 
  2 11  2  0  0  0  0 
  3 13  1  0  0  0  0 
  3 14  1  0  0  0  0 
  3 35  1  0  0  0  0 
  4 18  1  0  0  0  0 
  4 20  2  0  0  0  0 
  5  6  1  0  0  0  0 
  5  7  1  0  0  0  0 
  5 21  1  0  0  0  0 
  6  8  1  0  0  0  0 
  6 22  1  0  0  0  0 
  6 23  1  0  0  0  0 
  7  9  1  0  0  0  0 
  7 24  1  0  0  0  0 
  7 25  1  0  0  0  0 
  8  9  1  0  0  0  0 
  8 26  1  0  0  0  0 
  8 27  1  0  0  0  0 
  9 28  1  0  0  0  0 
  9 29  1  0  0  0  0 
 10 12  2  0  0  0  0 
 10 30  1  0  0  0  0 
 11 12  1  0  0  0  0 
 11 13  1  0  0  0  0 
 12 31  1  0  0  0  0 
 13 32  1  0  0  0  0 
 13 33  1  0  0  0  0 
 14 15  1  0  0  0  0 
 14 16  1  0  0  0  0 
 14 34  1  0  0  0  0 
 15 17  1  0  0  0  0 
 15 18  2  0  0  0  0 
 16 36  1  0  0  0  0 
 16 37  1  0  0  0  0 
 16 38  1  0  0  0  0 
 17 19  2  0  0  0  0 
 17 39  1  0  0  0  0 
 18 40  1  0  0  0  0 
 19 20  1  0  0  0  0 
 19 41  1  0  0  0  0 
 20 42  1  0  0  0  0 
M  END
> <cdk:Title>
64799108

> <cdk:Remark>
null

> <PUBCHEM_COMPOUND_CID>
64799108

> <PUBCHEM_COMPOUND_CANONICALIZED>
1

> <PUBCHEM_CACTVS_COMPLEXITY>
290

> <PUBCHEM_CACTVS_HBOND_ACCEPTOR>
3

> <PUBCHEM_CACTVS_HBOND_DONOR>
1

> <PUBCHEM_CACTVS_ROTATABLE_BOND>
5

> <PUBCHEM_CACTVS_SUBSKEYS>
AAADceB7gAAAAAAAAAAAAAAAAAAAAeIAAAAsAAAAAAAAAAAB4AAAHAAYAAAADCjBHgQ+gJLIEACiAzRnRACShCAxgiAY2KA4ZJgIYOLA0dGUpAhgmADIyAcQAAAOAAAAAAAAAAAAAAAAAAAAAAAAAAAAAA==

> <PUBCHEM_IUPAC_OPENEYE_NAME>
N-[(1-cyclopentylpyrazol-3-yl)methyl]-1-(3-pyridyl)ethanamine

> <PUBCHEM_IUPAC_CAS_NAME>
N-[(1-cyclopentyl-3-pyrazolyl)methyl]-1-(3-pyridinyl)ethanamine

> <PUBCHEM_IUPAC_NAME>
N-[(1-cyclopentylpyrazol-3-yl)methyl]-1-pyridin-3-ylethanamine

> <PUBCHEM_IUPAC_SYSTEMATIC_NAME>
N-[(1-cyclopentylpyrazol-3-yl)methyl]-1-pyridin-3-yl-ethanamine

> <PUBCHEM_IUPAC_TRADITIONAL_NAME>
(1-cyclopentylpyrazol-3-yl)methyl-[1-(3-pyridyl)ethyl]amine

> <PUBCHEM_IUPAC_INCHI>
InChI=1S/C16H22N4/c1-13(14-5-4-9-17-11-14)18-12-15-8-10-20(19-15)16-6-2-3-7-16/h4-5,8-11,13,16,18H,2-3,6-7,12H2,1H3

> <PUBCHEM_IUPAC_INCHIKEY>
XZHLTGJTGVHDLO-UHFFFAOYSA-N

> <PUBCHEM_XLOGP3_AA>
1.6

> <PUBCHEM_EXACT_MASS>
270.184447

> <PUBCHEM_MOLECULAR_FORMULA>
C16H22N4

> <PUBCHEM_MOLECULAR_WEIGHT>
270.37268

> <PUBCHEM_OPENEYE_CAN_SMILES>
CC(C1=CN=CC=C1)NCC2=NN(C=C2)C3CCCC3

> <PUBCHEM_OPENEYE_ISO_SMILES>
CC(C1=CN=CC=C1)NCC2=NN(C=C2)C3CCCC3

> <PUBCHEM_CACTVS_TPSA>
42.7

> <PUBCHEM_MONOISOTOPIC_WEIGHT>
270.184447

> <PUBCHEM_TOTAL_CHARGE>
0

> <PUBCHEM_HEAVY_ATOM_COUNT>
20

> <PUBCHEM_ATOM_DEF_STEREO_COUNT>
0

> <PUBCHEM_ATOM_UDEF_STEREO_COUNT>
1

> <PUBCHEM_BOND_DEF_STEREO_COUNT>
0

> <PUBCHEM_BOND_UDEF_STEREO_COUNT>
0

> <PUBCHEM_ISOTOPIC_ATOM_COUNT>
0

> <PUBCHEM_COMPONENT_COUNT>
1

> <PUBCHEM_CACTVS_TAUTO_COUNT>
1

> <PUBCHEM_COORDINATE_TYPE>
1

> <PUBCHEM_BONDANNOTATIONS>
1  10  8

$$$$
