63565696
  CDK     0104151047

 44 45  0  0  0  0  0  0  0  0999 V2000
    2.0000   -0.6830    0.0000 Cl  0  0  0  0  0  0  0  0  0  0  0  0
    5.4641   -3.6830    0.0000 O   0  0  0  0  0  0  0  0  0  0  0  0
    3.7320   -3.6830    0.0000 O   0  0  0  0  0  0  0  0  0  0  0  0
    4.5981    0.8170    0.0000 N   0  0  0  0  0  0  0  0  0  0  0  0
    4.5981   -3.1830    0.0000 N   0  0  0  0  0  0  0  0  0  0  0  0
    4.5981    2.8170    0.0000 C   0  0  0  0  0  0  0  0  0  0  0  0
    3.7320    2.3170    0.0000 C   0  0  0  0  0  0  0  0  0  0  0  0
    5.4641    2.3170    0.0000 C   0  0  0  0  0  0  0  0  0  0  0  0
    5.0981    3.6830    0.0000 C   0  0  0  0  0  0  0  0  0  0  0  0
    4.0981    3.6830    0.0000 C   0  0  0  0  0  0  0  0  0  0  0  0
    3.7320    1.3170    0.0000 C   0  0  0  0  0  0  0  0  0  0  0  0
    5.4641    1.3170    0.0000 C   0  0  0  0  0  0  0  0  0  0  0  0
    6.0981    3.6830    0.0000 C   0  0  0  0  0  0  0  0  0  0  0  0
    3.0981    3.6830    0.0000 C   0  0  0  0  0  0  0  0  0  0  0  0
    4.5981   -0.1830    0.0000 C   0  0  0  0  0  0  0  0  0  0  0  0
    3.7320   -0.6830    0.0000 C   0  0  0  0  0  0  0  0  0  0  0  0
    5.4641   -0.6830    0.0000 C   0  0  0  0  0  0  0  0  0  0  0  0
    3.7320   -1.6830    0.0000 C   0  0  0  0  0  0  0  0  0  0  0  0
    2.8660   -0.1830    0.0000 C   0  0  0  0  0  0  0  0  0  0  0  0
    5.4641   -1.6830    0.0000 C   0  0  0  0  0  0  0  0  0  0  0  0
    4.5981   -2.1830    0.0000 C   0  0  0  0  0  0  0  0  0  0  0  0
    6.0747    2.2093    0.0000 H   0  0  0  0  0  0  0  0  0  0  0  0
    5.6762    2.8996    0.0000 H   0  0  0  0  0  0  0  0  0  0  0  0
    3.5200    2.8996    0.0000 H   0  0  0  0  0  0  0  0  0  0  0  0
    3.1215    2.2093    0.0000 H   0  0  0  0  0  0  0  0  0  0  0  0
    4.6807    3.8951    0.0000 H   0  0  0  0  0  0  0  0  0  0  0  0
    3.9904    4.2936    0.0000 H   0  0  0  0  0  0  0  0  0  0  0  0
    5.2057    4.2936    0.0000 H   0  0  0  0  0  0  0  0  0  0  0  0
    4.5155    3.8951    0.0000 H   0  0  0  0  0  0  0  0  0  0  0  0
    5.6762    0.7344    0.0000 H   0  0  0  0  0  0  0  0  0  0  0  0
    6.0747    1.4246    0.0000 H   0  0  0  0  0  0  0  0  0  0  0  0
    3.1215    1.4246    0.0000 H   0  0  0  0  0  0  0  0  0  0  0  0
    3.5200    0.7344    0.0000 H   0  0  0  0  0  0  0  0  0  0  0  0
    6.0981    3.0630    0.0000 H   0  0  0  0  0  0  0  0  0  0  0  0
    6.7181    3.6830    0.0000 H   0  0  0  0  0  0  0  0  0  0  0  0
    6.0981    4.3030    0.0000 H   0  0  0  0  0  0  0  0  0  0  0  0
    3.0981    4.3030    0.0000 H   0  0  0  0  0  0  0  0  0  0  0  0
    2.4781    3.6830    0.0000 H   0  0  0  0  0  0  0  0  0  0  0  0
    3.0981    3.0630    0.0000 H   0  0  0  0  0  0  0  0  0  0  0  0
    6.0010   -0.3730    0.0000 H   0  0  0  0  0  0  0  0  0  0  0  0
    3.1951   -1.9930    0.0000 H   0  0  0  0  0  0  0  0  0  0  0  0
    3.2646    0.2919    0.0000 H   0  0  0  0  0  0  0  0  0  0  0  0
    2.4675    0.2919    0.0000 H   0  0  0  0  0  0  0  0  0  0  0  0
    6.0010   -1.9930    0.0000 H   0  0  0  0  0  0  0  0  0  0  0  0
  1 19  1  0  0  0  0 
  2  5  1  0  0  0  0 
  3  5  2  0  0  0  0 
  4 11  1  0  0  0  0 
  4 12  1  0  0  0  0 
  4 15  1  0  0  0  0 
  5 21  1  0  0  0  0 
  6  7  1  0  0  0  0 
  6  8  1  0  0  0  0 
  6  9  1  0  0  0  0 
  6 10  1  0  0  0  0 
  7 11  1  0  0  0  0 
  7 24  1  0  0  0  0 
  7 25  1  0  0  0  0 
  8 12  1  0  0  0  0 
  8 22  1  0  0  0  0 
  8 23  1  0  0  0  0 
  9 13  1  0  0  0  0 
  9 28  1  0  0  0  0 
  9 29  1  0  0  0  0 
 10 14  1  0  0  0  0 
 10 26  1  0  0  0  0 
 10 27  1  0  0  0  0 
 11 32  1  0  0  0  0 
 11 33  1  0  0  0  0 
 12 30  1  0  0  0  0 
 12 31  1  0  0  0  0 
 13 34  1  0  0  0  0 
 13 35  1  0  0  0  0 
 13 36  1  0  0  0  0 
 14 37  1  0  0  0  0 
 14 38  1  0  0  0  0 
 14 39  1  0  0  0  0 
 15 16  2  0  0  0  0 
 15 17  1  0  0  0  0 
 16 18  1  0  0  0  0 
 16 19  1  0  0  0  0 
 17 20  2  0  0  0  0 
 17 40  1  0  0  0  0 
 18 21  2  0  0  0  0 
 18 41  1  0  0  0  0 
 19 42  1  0  0  0  0 
 19 43  1  0  0  0  0 
 20 21  1  0  0  0  0 
 20 44  1  0  0  0  0 
M  CHG  1   2  -1
M  CHG  1   5   1
M  END
> <cdk:Title>
63565696

> <cdk:Remark>
null

> <PUBCHEM_COMPOUND_CID>
63565696

> <PUBCHEM_COMPOUND_CANONICALIZED>
1

> <PUBCHEM_CACTVS_COMPLEXITY>
345

> <PUBCHEM_CACTVS_HBOND_ACCEPTOR>
3

> <PUBCHEM_CACTVS_HBOND_DONOR>
0

> <PUBCHEM_CACTVS_ROTATABLE_BOND>
4

> <PUBCHEM_CACTVS_SUBSKEYS>
AAADceB7MAAEAAAAAAAAAAAAAAAAAAAAAAA8QAAAAAAAAAABAAAAHAIEAAAADgvBGEQywIMQQACBAiRCQwCCAAAhAgAoiAAIZooIICLBkZGEIAhggADIyAcQgAAPAACAQAACAAAAAQCAAAQAAAAAAAAAAA==

> <PUBCHEM_IUPAC_OPENEYE_NAME>
1-[2-(chloromethyl)-4-nitro-phenyl]-4,4-diethyl-piperidine

> <PUBCHEM_IUPAC_CAS_NAME>
1-[2-(chloromethyl)-4-nitrophenyl]-4,4-diethylpiperidine

> <PUBCHEM_IUPAC_NAME>
1-[2-(chloromethyl)-4-nitrophenyl]-4,4-diethylpiperidine

> <PUBCHEM_IUPAC_SYSTEMATIC_NAME>
1-[2-(chloromethyl)-4-nitro-phenyl]-4,4-diethyl-piperidine

> <PUBCHEM_IUPAC_TRADITIONAL_NAME>
1-[2-(chloromethyl)-4-nitro-phenyl]-4,4-diethyl-piperidine

> <PUBCHEM_IUPAC_INCHI>
InChI=1S/C16H23ClN2O2/c1-3-16(4-2)7-9-18(10-8-16)15-6-5-14(19(20)21)11-13(15)12-17/h5-6,11H,3-4,7-10,12H2,1-2H3

> <PUBCHEM_IUPAC_INCHIKEY>
YUWPSDQIJXXBKB-UHFFFAOYSA-N

> <PUBCHEM_XLOGP3_AA>
5

> <PUBCHEM_EXACT_MASS>
310.144806

> <PUBCHEM_MOLECULAR_FORMULA>
C16H23ClN2O2

> <PUBCHEM_MOLECULAR_WEIGHT>
310.81902

> <PUBCHEM_OPENEYE_CAN_SMILES>
CCC1(CCN(CC1)C2=C(C=C(C=C2)[N+](=O)[O-])CCl)CC

> <PUBCHEM_OPENEYE_ISO_SMILES>
CCC1(CCN(CC1)C2=C(C=C(C=C2)[N+](=O)[O-])CCl)CC

> <PUBCHEM_CACTVS_TPSA>
49.1

> <PUBCHEM_MONOISOTOPIC_WEIGHT>
310.144806

> <PUBCHEM_TOTAL_CHARGE>
0

> <PUBCHEM_HEAVY_ATOM_COUNT>
21

> <PUBCHEM_ATOM_DEF_STEREO_COUNT>
0

> <PUBCHEM_ATOM_UDEF_STEREO_COUNT>
0

> <PUBCHEM_BOND_DEF_STEREO_COUNT>
0

> <PUBCHEM_BOND_UDEF_STEREO_COUNT>
0

> <PUBCHEM_ISOTOPIC_ATOM_COUNT>
0

> <PUBCHEM_COMPONENT_COUNT>
1

> <PUBCHEM_CACTVS_TAUTO_COUNT>
1

> <PUBCHEM_COORDINATE_TYPE>
1

> <PUBCHEM_BONDANNOTATIONS>
15  16  8

$$$$
63565696
  CDK     0104151047

 44 45  0  0  0  0  0  0  0  0999 V2000
    2.0000   -0.6830    0.0000 Cl  0  0  0  0  0  0  0  0  0  0  0  0
    5.4641   -3.6830    0.0000 O   0  0  0  0  0  0  0  0  0  0  0  0
    3.7320   -3.6830    0.0000 O   0  0  0  0  0  0  0  0  0  0  0  0
    4.5981    0.8170    0.0000 N   0  0  0  0  0  0  0  0  0  0  0  0
    4.5981   -3.1830    0.0000 N   0  0  0  0  0  0  0  0  0  0  0  0
    4.5981    2.8170    0.0000 C   0  0  0  0  0  0  0  0  0  0  0  0
    3.7320    2.3170    0.0000 C   0  0  0  0  0  0  0  0  0  0  0  0
    5.4641    2.3170    0.0000 C   0  0  0  0  0  0  0  0  0  0  0  0
    5.0981    3.6830    0.0000 C   0  0  0  0  0  0  0  0  0  0  0  0
    4.0981    3.6830    0.0000 C   0  0  0  0  0  0  0  0  0  0  0  0
    3.7320    1.3170    0.0000 C   0  0  0  0  0  0  0  0  0  0  0  0
    5.4641    1.3170    0.0000 C   0  0  0  0  0  0  0  0  0  0  0  0
    6.0981    3.6830    0.0000 C   0  0  0  0  0  0  0  0  0  0  0  0
    3.0981    3.6830    0.0000 C   0  0  0  0  0  0  0  0  0  0  0  0
    4.5981   -0.1830    0.0000 C   0  0  0  0  0  0  0  0  0  0  0  0
    3.7320   -0.6830    0.0000 C   0  0  0  0  0  0  0  0  0  0  0  0
    5.4641   -0.6830    0.0000 C   0  0  0  0  0  0  0  0  0  0  0  0
    3.7320   -1.6830    0.0000 C   0  0  0  0  0  0  0  0  0  0  0  0
    2.8660   -0.1830    0.0000 C   0  0  0  0  0  0  0  0  0  0  0  0
    5.4641   -1.6830    0.0000 C   0  0  0  0  0  0  0  0  0  0  0  0
    4.5981   -2.1830    0.0000 C   0  0  0  0  0  0  0  0  0  0  0  0
    6.0747    2.2093    0.0000 H   0  0  0  0  0  0  0  0  0  0  0  0
    5.6762    2.8996    0.0000 H   0  0  0  0  0  0  0  0  0  0  0  0
    3.5200    2.8996    0.0000 H   0  0  0  0  0  0  0  0  0  0  0  0
    3.1215    2.2093    0.0000 H   0  0  0  0  0  0  0  0  0  0  0  0
    4.6807    3.8951    0.0000 H   0  0  0  0  0  0  0  0  0  0  0  0
    3.9904    4.2936    0.0000 H   0  0  0  0  0  0  0  0  0  0  0  0
    5.2057    4.2936    0.0000 H   0  0  0  0  0  0  0  0  0  0  0  0
    4.5155    3.8951    0.0000 H   0  0  0  0  0  0  0  0  0  0  0  0
    5.6762    0.7344    0.0000 H   0  0  0  0  0  0  0  0  0  0  0  0
    6.0747    1.4246    0.0000 H   0  0  0  0  0  0  0  0  0  0  0  0
    3.1215    1.4246    0.0000 H   0  0  0  0  0  0  0  0  0  0  0  0
    3.5200    0.7344    0.0000 H   0  0  0  0  0  0  0  0  0  0  0  0
    6.0981    3.0630    0.0000 H   0  0  0  0  0  0  0  0  0  0  0  0
    6.7181    3.6830    0.0000 H   0  0  0  0  0  0  0  0  0  0  0  0
    6.0981    4.3030    0.0000 H   0  0  0  0  0  0  0  0  0  0  0  0
    3.0981    4.3030    0.0000 H   0  0  0  0  0  0  0  0  0  0  0  0
    2.4781    3.6830    0.0000 H   0  0  0  0  0  0  0  0  0  0  0  0
    3.0981    3.0630    0.0000 H   0  0  0  0  0  0  0  0  0  0  0  0
    6.0010   -0.3730    0.0000 H   0  0  0  0  0  0  0  0  0  0  0  0
    3.1951   -1.9930    0.0000 H   0  0  0  0  0  0  0  0  0  0  0  0
    3.2646    0.2919    0.0000 H   0  0  0  0  0  0  0  0  0  0  0  0
    2.4675    0.2919    0.0000 H   0  0  0  0  0  0  0  0  0  0  0  0
    6.0010   -1.9930    0.0000 H   0  0  0  0  0  0  0  0  0  0  0  0
  1 19  1  0  0  0  0 
  2  5  1  0  0  0  0 
  3  5  2  0  0  0  0 
  4 11  1  0  0  0  0 
  4 12  1  0  0  0  0 
  4 15  1  0  0  0  0 
  5 21  1  0  0  0  0 
  6  7  1  0  0  0  0 
  6  8  1  0  0  0  0 
  6  9  1  0  0  0  0 
  6 10  1  0  0  0  0 
  7 11  1  0  0  0  0 
  7 24  1  0  0  0  0 
  7 25  1  0  0  0  0 
  8 12  1  0  0  0  0 
  8 22  1  0  0  0  0 
  8 23  1  0  0  0  0 
  9 13  1  0  0  0  0 
  9 28  1  0  0  0  0 
  9 29  1  0  0  0  0 
 10 14  1  0  0  0  0 
 10 26  1  0  0  0  0 
 10 27  1  0  0  0  0 
 11 32  1  0  0  0  0 
 11 33  1  0  0  0  0 
 12 30  1  0  0  0  0 
 12 31  1  0  0  0  0 
 13 34  1  0  0  0  0 
 13 35  1  0  0  0  0 
 13 36  1  0  0  0  0 
 14 37  1  0  0  0  0 
 14 38  1  0  0  0  0 
 14 39  1  0  0  0  0 
 15 16  2  0  0  0  0 
 15 17  1  0  0  0  0 
 16 18  1  0  0  0  0 
 16 19  1  0  0  0  0 
 17 20  2  0  0  0  0 
 17 40  1  0  0  0  0 
 18 21  2  0  0  0  0 
 18 41  1  0  0  0  0 
 19 42  1  0  0  0  0 
 19 43  1  0  0  0  0 
 20 21  1  0  0  0  0 
 20 44  1  0  0  0  0 
M  CHG  1   2  -1
M  CHG  1   5   1
M  END
> <cdk:Title>
63565696

> <cdk:Remark>
null

> <PUBCHEM_COMPOUND_CID>
63565696

> <PUBCHEM_COMPOUND_CANONICALIZED>
1

> <PUBCHEM_CACTVS_COMPLEXITY>
345

> <PUBCHEM_CACTVS_HBOND_ACCEPTOR>
3

> <PUBCHEM_CACTVS_HBOND_DONOR>
0

> <PUBCHEM_CACTVS_ROTATABLE_BOND>
4

> <PUBCHEM_CACTVS_SUBSKEYS>
AAADceB7MAAEAAAAAAAAAAAAAAAAAAAAAAA8QAAAAAAAAAABAAAAHAIEAAAADgvBGEQywIMQQACBAiRCQwCCAAAhAgAoiAAIZooIICLBkZGEIAhggADIyAcQgAAPAACAQAACAAAAAQCAAAQAAAAAAAAAAA==

> <PUBCHEM_IUPAC_OPENEYE_NAME>
1-[2-(chloromethyl)-4-nitro-phenyl]-4,4-diethyl-piperidine

> <PUBCHEM_IUPAC_CAS_NAME>
1-[2-(chloromethyl)-4-nitrophenyl]-4,4-diethylpiperidine

> <PUBCHEM_IUPAC_NAME>
1-[2-(chloromethyl)-4-nitrophenyl]-4,4-diethylpiperidine

> <PUBCHEM_IUPAC_SYSTEMATIC_NAME>
1-[2-(chloromethyl)-4-nitro-phenyl]-4,4-diethyl-piperidine

> <PUBCHEM_IUPAC_TRADITIONAL_NAME>
1-[2-(chloromethyl)-4-nitro-phenyl]-4,4-diethyl-piperidine

> <PUBCHEM_IUPAC_INCHI>
InChI=1S/C16H23ClN2O2/c1-3-16(4-2)7-9-18(10-8-16)15-6-5-14(19(20)21)11-13(15)12-17/h5-6,11H,3-4,7-10,12H2,1-2H3

> <PUBCHEM_IUPAC_INCHIKEY>
YUWPSDQIJXXBKB-UHFFFAOYSA-N

> <PUBCHEM_XLOGP3_AA>
5

> <PUBCHEM_EXACT_MASS>
310.144806

> <PUBCHEM_MOLECULAR_FORMULA>
C16H23ClN2O2

> <PUBCHEM_MOLECULAR_WEIGHT>
310.81902

> <PUBCHEM_OPENEYE_CAN_SMILES>
CCC1(CCN(CC1)C2=C(C=C(C=C2)[N+](=O)[O-])CCl)CC

> <PUBCHEM_OPENEYE_ISO_SMILES>
CCC1(CCN(CC1)C2=C(C=C(C=C2)[N+](=O)[O-])CCl)CC

> <PUBCHEM_CACTVS_TPSA>
49.1

> <PUBCHEM_MONOISOTOPIC_WEIGHT>
310.144806

> <PUBCHEM_TOTAL_CHARGE>
0

> <PUBCHEM_HEAVY_ATOM_COUNT>
21

> <PUBCHEM_ATOM_DEF_STEREO_COUNT>
0

> <PUBCHEM_ATOM_UDEF_STEREO_COUNT>
0

> <PUBCHEM_BOND_DEF_STEREO_COUNT>
0

> <PUBCHEM_BOND_UDEF_STEREO_COUNT>
0

> <PUBCHEM_ISOTOPIC_ATOM_COUNT>
0

> <PUBCHEM_COMPONENT_COUNT>
1

> <PUBCHEM_CACTVS_TAUTO_COUNT>
1

> <PUBCHEM_COORDINATE_TYPE>
1

> <PUBCHEM_BONDANNOTATIONS>
15  16  8

$$$$
