70413264
  CDK     0104151054

 25 26  0  0  0  0  0  0  0  0999 V2000
    5.4641   -1.1307    0.0000 Cl  0  0  0  0  0  0  0  0  0  0  0  0
    3.2320    1.4081    0.0000 S   0  0  0  0  0  0  0  0  0  0  0  0
    4.8198    2.2172    0.0000 S   0  0  3  0  0  0  0  0  0  0  0  0
    2.0000   -1.1307    0.0000 F   0  0  0  0  0  0  0  0  0  0  0  0
    5.8144    2.1126    0.0000 O   0  0  0  0  0  0  0  0  0  0  0  0
    6.4432   -0.1610    0.0000 N   0  0  0  0  0  0  0  0  0  0  0  0
    3.7320   -0.1307    0.0000 C   0  0  0  0  0  0  0  0  0  0  0  0
    3.7320   -1.1307    0.0000 C   0  0  0  0  0  0  0  0  0  0  0  0
    4.5411    0.4571    0.0000 C   0  0  0  0  0  0  0  0  0  0  0  0
    4.2320    1.4081    0.0000 C   0  0  0  0  0  0  0  0  0  0  0  0
    2.9230    0.4571    0.0000 C   0  0  0  0  0  0  0  0  0  0  0  0
    4.5981   -1.6307    0.0000 C   0  0  0  0  0  0  0  0  0  0  0  0
    2.8660   -1.6307    0.0000 C   0  0  0  0  0  0  0  0  0  0  0  0
    4.5981   -2.6307    0.0000 C   0  0  0  0  0  0  0  0  0  0  0  0
    2.8660   -2.6307    0.0000 C   0  0  0  0  0  0  0  0  0  0  0  0
    3.7320   -3.1307    0.0000 C   0  0  0  0  0  0  0  0  0  0  0  0
    4.4131    3.1307    0.0000 C   0  0  0  0  0  0  0  0  0  0  0  0
    5.4921    0.1481    0.0000 C   0  0  0  0  0  0  0  0  0  0  0  0
    2.3334    0.2655    0.0000 H   0  0  0  0  0  0  0  0  0  0  0  0
    5.1350   -2.9407    0.0000 H   0  0  0  0  0  0  0  0  0  0  0  0
    2.3291   -2.9407    0.0000 H   0  0  0  0  0  0  0  0  0  0  0  0
    3.7320   -3.7507    0.0000 H   0  0  0  0  0  0  0  0  0  0  0  0
    4.9795    3.3829    0.0000 H   0  0  0  0  0  0  0  0  0  0  0  0
    4.1609    3.6971    0.0000 H   0  0  0  0  0  0  0  0  0  0  0  0
    3.8467    2.8785    0.0000 H   0  0  0  0  0  0  0  0  0  0  0  0
  1 12  1  0  0  0  0 
  2 10  1  0  0  0  0 
  2 11  1  0  0  0  0 
  3  5  2  0  0  0  0 
  3 10  1  0  0  0  0 
  3 17  1  0  0  0  0 
  4 13  1  0  0  0  0 
  6 18  3  0  0  0  0 
  7  8  1  0  0  0  0 
  7  9  1  0  0  0  0 
  7 11  2  0  0  0  0 
  8 12  1  0  0  0  0 
  8 13  2  0  0  0  0 
  9 10  2  0  0  0  0 
  9 18  1  0  0  0  0 
 11 19  1  0  0  0  0 
 12 14  2  0  0  0  0 
 13 15  1  0  0  0  0 
 14 16  1  0  0  0  0 
 14 20  1  0  0  0  0 
 15 16  2  0  0  0  0 
 15 21  1  0  0  0  0 
 16 22  1  0  0  0  0 
 17 23  1  0  0  0  0 
 17 24  1  0  0  0  0 
 17 25  1  0  0  0  0 
M  END
> <cdk:Title>
70413264

> <cdk:Remark>
null

> <PUBCHEM_COMPOUND_CID>
70413264

> <PUBCHEM_COMPOUND_CANONICALIZED>
1

> <PUBCHEM_CACTVS_COMPLEXITY>
386

> <PUBCHEM_CACTVS_HBOND_ACCEPTOR>
5

> <PUBCHEM_CACTVS_HBOND_DONOR>
0

> <PUBCHEM_CACTVS_ROTATABLE_BOND>
2

> <PUBCHEM_CACTVS_SUBSKEYS>
AAADcYByIQBkAAAAAAAAAAAAAAAAASAAAAAwAAAAAAAAAAABwAAAHQYAAAAADAKFWCiyAYAAAAqUBiBCAEBjAYAgDRAIiBAAAogIoCKhExCAIAAggAAoiA8AgMAOgAAAAAABAAAAAAAAAAIAAAAAAAAAAA==

> <PUBCHEM_IUPAC_OPENEYE_NAME>
4-(2-chloro-6-fluoro-phenyl)-2-methylsulfinyl-thiophene-3-carbonitrile

> <PUBCHEM_IUPAC_CAS_NAME>
4-(2-chloro-6-fluorophenyl)-2-methylsulfinyl-3-thiophenecarbonitrile

> <PUBCHEM_IUPAC_NAME>
4-(2-chloro-6-fluorophenyl)-2-methylsulfinylthiophene-3-carbonitrile

> <PUBCHEM_IUPAC_SYSTEMATIC_NAME>
4-(2-chloranyl-6-fluoranyl-phenyl)-2-methylsulfinyl-thiophene-3-carbonitrile

> <PUBCHEM_IUPAC_TRADITIONAL_NAME>
4-(2-chloro-6-fluoro-phenyl)-2-methylsulfinyl-thiophene-3-carbonitrile

> <PUBCHEM_IUPAC_INCHI>
InChI=1S/C12H7ClFNOS2/c1-18(16)12-7(5-15)8(6-17-12)11-9(13)3-2-4-10(11)14/h2-4,6H,1H3

> <PUBCHEM_IUPAC_INCHIKEY>
MBYKGNSPOIWOHD-UHFFFAOYSA-N

> <PUBCHEM_XLOGP3_AA>
3.1

> <PUBCHEM_EXACT_MASS>
298.964162

> <PUBCHEM_MOLECULAR_FORMULA>
C12H7ClFNOS2

> <PUBCHEM_MOLECULAR_WEIGHT>
299.771483

> <PUBCHEM_OPENEYE_CAN_SMILES>
CS(=O)C1=C(C(=CS1)C2=C(C=CC=C2Cl)F)C#N

> <PUBCHEM_OPENEYE_ISO_SMILES>
CS(=O)C1=C(C(=CS1)C2=C(C=CC=C2Cl)F)C#N

> <PUBCHEM_CACTVS_TPSA>
88.3

> <PUBCHEM_MONOISOTOPIC_WEIGHT>
298.964162

> <PUBCHEM_TOTAL_CHARGE>
0

> <PUBCHEM_HEAVY_ATOM_COUNT>
18

> <PUBCHEM_ATOM_DEF_STEREO_COUNT>
0

> <PUBCHEM_ATOM_UDEF_STEREO_COUNT>
1

> <PUBCHEM_BOND_DEF_STEREO_COUNT>
0

> <PUBCHEM_BOND_UDEF_STEREO_COUNT>
0

> <PUBCHEM_ISOTOPIC_ATOM_COUNT>
0

> <PUBCHEM_COMPONENT_COUNT>
1

> <PUBCHEM_CACTVS_TAUTO_COUNT>
1

> <PUBCHEM_COORDINATE_TYPE>
1

> <PUBCHEM_BONDANNOTATIONS>
12  14  8

$$$$
