4282443
  CDK     0104150955

 61 65  0  0  0  0  0  0  0  0999 V2000
    6.3359    1.4773    0.0000 S   0  0  0  0  0  0  0  0  0  0  0  0
   11.6782    3.3062    0.0000 O   0  0  0  0  0  0  0  0  0  0  0  0
   11.6782    1.6967    0.0000 O   0  0  0  0  0  0  0  0  0  0  0  0
    8.1176    4.5360    0.0000 O   0  0  0  0  0  0  0  0  0  0  0  0
    2.8641    1.5390    0.0000 O   0  0  0  0  0  0  0  0  0  0  0  0
    4.6077    0.4706    0.0000 O   0  0  0  0  0  0  0  0  0  0  0  0
    7.2000    3.0222    0.0000 N   0  0  0  0  0  0  0  0  0  0  0  0
    8.1060    1.4668    0.0000 N   0  0  0  0  0  0  0  0  0  0  0  0
    5.4795   -1.0260    0.0000 N   0  0  0  0  0  0  0  0  0  0  0  0
    9.0000    3.0014    0.0000 C   0  0  0  0  0  0  0  0  0  0  0  0
    6.3359    3.5256    0.0000 C   0  0  0  0  0  0  0  0  0  0  0  0
    9.0000    2.0014    0.0000 C   0  0  0  0  0  0  0  0  0  0  0  0
    8.1060    3.5361    0.0000 C   0  0  0  0  0  0  0  0  0  0  0  0
    7.2000    1.9806    0.0000 C   0  0  0  0  0  0  0  0  0  0  0  0
    9.8660    3.5014    0.0000 C   0  0  0  0  0  0  0  0  0  0  0  0
   10.7320    3.0014    0.0000 C   0  0  0  0  0  0  0  0  0  0  0  0
   10.7320    2.0014    0.0000 C   0  0  0  0  0  0  0  0  0  0  0  0
    9.8660    1.5014    0.0000 C   0  0  0  0  0  0  0  0  0  0  0  0
    5.4679    3.0289    0.0000 C   0  0  0  0  0  0  0  0  0  0  0  0
   12.2619    2.5014    0.0000 C   0  0  0  0  0  0  0  0  0  0  0  0
    4.6038    3.5323    0.0000 C   0  0  0  0  0  0  0  0  0  0  0  0
    5.4641    2.0289    0.0000 C   0  0  0  0  0  0  0  0  0  0  0  0
    4.6193   -2.5294    0.0000 C   0  0  0  0  0  0  0  0  0  0  0  0
    6.3397    0.4773    0.0000 C   0  0  0  0  0  0  0  0  0  0  0  0
    4.6154   -1.5294    0.0000 C   0  0  0  0  0  0  0  0  0  0  0  0
    3.7552   -3.0327    0.0000 C   0  0  0  0  0  0  0  0  0  0  0  0
    5.4756   -0.0260    0.0000 C   0  0  0  0  0  0  0  0  0  0  0  0
    3.7359    3.0356    0.0000 C   0  0  0  0  0  0  0  0  0  0  0  0
    4.5961    1.5323    0.0000 C   0  0  0  0  0  0  0  0  0  0  0  0
    3.7320    2.0356    0.0000 C   0  0  0  0  0  0  0  0  0  0  0  0
    2.8872   -2.5360    0.0000 C   0  0  0  0  0  0  0  0  0  0  0  0
    3.7590   -4.0327    0.0000 C   0  0  0  0  0  0  0  0  0  0  0  0
    2.0231   -3.0394    0.0000 C   0  0  0  0  0  0  0  0  0  0  0  0
    2.8949   -4.5360    0.0000 C   0  0  0  0  0  0  0  0  0  0  0  0
    2.0270   -4.0394    0.0000 C   0  0  0  0  0  0  0  0  0  0  0  0
    2.0000    2.0423    0.0000 C   0  0  0  0  0  0  0  0  0  0  0  0
    6.7362    3.9990    0.0000 H   0  0  0  0  0  0  0  0  0  0  0  0
    5.9392    4.0021    0.0000 H   0  0  0  0  0  0  0  0  0  0  0  0
    9.8660    4.1214    0.0000 H   0  0  0  0  0  0  0  0  0  0  0  0
    9.8660    0.8814    0.0000 H   0  0  0  0  0  0  0  0  0  0  0  0
   12.7227    2.0867    0.0000 H   0  0  0  0  0  0  0  0  0  0  0  0
   12.7227    2.9162    0.0000 H   0  0  0  0  0  0  0  0  0  0  0  0
    4.6062    4.1523    0.0000 H   0  0  0  0  0  0  0  0  0  0  0  0
    5.9998    1.7169    0.0000 H   0  0  0  0  0  0  0  0  0  0  0  0
    4.8336   -3.1112    0.0000 H   0  0  0  0  0  0  0  0  0  0  0  0
    5.2294   -2.4194    0.0000 H   0  0  0  0  0  0  0  0  0  0  0  0
    4.4011   -0.9476    0.0000 H   0  0  0  0  0  0  0  0  0  0  0  0
    4.0052   -1.6394    0.0000 H   0  0  0  0  0  0  0  0  0  0  0  0
    6.5540   -0.1045    0.0000 H   0  0  0  0  0  0  0  0  0  0  0  0
    6.9499    0.5873    0.0000 H   0  0  0  0  0  0  0  0  0  0  0  0
    6.0176   -1.3340    0.0000 H   0  0  0  0  0  0  0  0  0  0  0  0
    3.2002    3.3477    0.0000 H   0  0  0  0  0  0  0  0  0  0  0  0
    4.5937    0.9123    0.0000 H   0  0  0  0  0  0  0  0  0  0  0  0
    2.8848   -1.9160    0.0000 H   0  0  0  0  0  0  0  0  0  0  0  0
    4.2972   -4.3406    0.0000 H   0  0  0  0  0  0  0  0  0  0  0  0
    1.4850   -2.7314    0.0000 H   0  0  0  0  0  0  0  0  0  0  0  0
    2.8973   -5.1560    0.0000 H   0  0  0  0  0  0  0  0  0  0  0  0
    1.4912   -4.3514    0.0000 H   0  0  0  0  0  0  0  0  0  0  0  0
    2.3121    2.5780    0.0000 H   0  0  0  0  0  0  0  0  0  0  0  0
    1.4643    2.3544    0.0000 H   0  0  0  0  0  0  0  0  0  0  0  0
    1.6879    1.5066    0.0000 H   0  0  0  0  0  0  0  0  0  0  0  0
  1 14  1  0  0  0  0 
  1 24  1  0  0  0  0 
  2 16  1  0  0  0  0 
  2 20  1  0  0  0  0 
  3 17  1  0  0  0  0 
  3 20  1  0  0  0  0 
  4 13  2  0  0  0  0 
  5 30  1  0  0  0  0 
  5 36  1  0  0  0  0 
  6 27  2  0  0  0  0 
  7 11  1  0  0  0  0 
  7 13  1  0  0  0  0 
  7 14  1  0  0  0  0 
  8 12  1  0  0  0  0 
  8 14  2  0  0  0  0 
  9 25  1  0  0  0  0 
  9 27  1  0  0  0  0 
  9 51  1  0  0  0  0 
 10 12  1  0  0  0  0 
 10 13  1  0  0  0  0 
 10 15  2  0  0  0  0 
 11 19  1  0  0  0  0 
 11 37  1  0  0  0  0 
 11 38  1  0  0  0  0 
 12 18  2  0  0  0  0 
 15 16  1  0  0  0  0 
 15 39  1  0  0  0  0 
 16 17  2  0  0  0  0 
 17 18  1  0  0  0  0 
 18 40  1  0  0  0  0 
 19 21  2  0  0  0  0 
 19 22  1  0  0  0  0 
 20 41  1  0  0  0  0 
 20 42  1  0  0  0  0 
 21 28  1  0  0  0  0 
 21 43  1  0  0  0  0 
 22 29  2  0  0  0  0 
 22 44  1  0  0  0  0 
 23 25  1  0  0  0  0 
 23 26  1  0  0  0  0 
 23 45  1  0  0  0  0 
 23 46  1  0  0  0  0 
 24 27  1  0  0  0  0 
 24 49  1  0  0  0  0 
 24 50  1  0  0  0  0 
 25 47  1  0  0  0  0 
 25 48  1  0  0  0  0 
 26 31  2  0  0  0  0 
 26 32  1  0  0  0  0 
 28 30  2  0  0  0  0 
 28 52  1  0  0  0  0 
 29 30  1  0  0  0  0 
 29 53  1  0  0  0  0 
 31 33  1  0  0  0  0 
 31 54  1  0  0  0  0 
 32 34  2  0  0  0  0 
 32 55  1  0  0  0  0 
 33 35  2  0  0  0  0 
 33 56  1  0  0  0  0 
 34 35  1  0  0  0  0 
 34 57  1  0  0  0  0 
 35 58  1  0  0  0  0 
 36 59  1  0  0  0  0 
 36 60  1  0  0  0  0 
 36 61  1  0  0  0  0 
M  END
> <cdk:Title>
4282443

> <cdk:Remark>
null

> <PUBCHEM_COMPOUND_CID>
4282443

> <PUBCHEM_COMPOUND_CANONICALIZED>
1

> <PUBCHEM_CACTVS_COMPLEXITY>
796

> <PUBCHEM_CACTVS_HBOND_ACCEPTOR>
7

> <PUBCHEM_CACTVS_HBOND_DONOR>
1

> <PUBCHEM_CACTVS_ROTATABLE_BOND>
9

> <PUBCHEM_CACTVS_SUBSKEYS>
AAADceB7OABAAAAAAAAAAAAAAAAAASAAAAAwYMEAAAAAAEiBUAAAHgQQAAAADAzF2AezzoPABAioAiVSdACCGAFkIhAJiIEO7MgdJjqE/ZukMapm1hmO6ce63JPOIEABAgACQABAgAIEAASAAAAAAAAAAA==

> <PUBCHEM_IUPAC_OPENEYE_NAME>
2-[[7-[(4-methoxyphenyl)methyl]-8-oxo-[1,3]dioxolo[4,5-g]quinazolin-6-yl]sulfanyl]-N-(2-phenylethyl)acetamide

> <PUBCHEM_IUPAC_CAS_NAME>
2-[[7-[(4-methoxyphenyl)methyl]-8-oxo-[1,3]dioxolo[4,5-g]quinazolin-6-yl]thio]-N-(2-phenylethyl)acetamide

> <PUBCHEM_IUPAC_NAME>
2-[[7-[(4-methoxyphenyl)methyl]-8-oxo-[1,3]dioxolo[4,5-g]quinazolin-6-yl]sulfanyl]-N-(2-phenylethyl)acetamide

> <PUBCHEM_IUPAC_SYSTEMATIC_NAME>
2-[[7-[(4-methoxyphenyl)methyl]-8-oxidanylidene-[1,3]dioxolo[4,5-g]quinazolin-6-yl]sulfanyl]-N-(2-phenylethyl)ethanamide

> <PUBCHEM_IUPAC_TRADITIONAL_NAME>
2-[(8-keto-7-p-anisyl-[1,3]dioxolo[4,5-g]quinazolin-6-yl)thio]-N-phenethyl-acetamide

> <PUBCHEM_IUPAC_INCHI>
InChI=1S/C27H25N3O5S/c1-33-20-9-7-19(8-10-20)15-30-26(32)21-13-23-24(35-17-34-23)14-22(21)29-27(30)36-16-25(31)28-12-11-18-5-3-2-4-6-18/h2-10,13-14H,11-12,15-17H2,1H3,(H,28,31)

> <PUBCHEM_IUPAC_INCHIKEY>
PQPXGQKENOIYNE-UHFFFAOYSA-N

> <PUBCHEM_XLOGP3_AA>
4.4

> <PUBCHEM_EXACT_MASS>
503.151492

> <PUBCHEM_MOLECULAR_FORMULA>
C27H25N3O5S

> <PUBCHEM_MOLECULAR_WEIGHT>
503.5695

> <PUBCHEM_OPENEYE_CAN_SMILES>
COC1=CC=C(C=C1)CN2C(=O)C3=CC4=C(C=C3N=C2SCC(=O)NCCC5=CC=CC=C5)OCO4

> <PUBCHEM_OPENEYE_ISO_SMILES>
COC1=CC=C(C=C1)CN2C(=O)C3=CC4=C(C=C3N=C2SCC(=O)NCCC5=CC=CC=C5)OCO4

> <PUBCHEM_CACTVS_TPSA>
115

> <PUBCHEM_MONOISOTOPIC_WEIGHT>
503.151492

> <PUBCHEM_TOTAL_CHARGE>
0

> <PUBCHEM_HEAVY_ATOM_COUNT>
36

> <PUBCHEM_ATOM_DEF_STEREO_COUNT>
0

> <PUBCHEM_ATOM_UDEF_STEREO_COUNT>
0

> <PUBCHEM_BOND_DEF_STEREO_COUNT>
0

> <PUBCHEM_BOND_UDEF_STEREO_COUNT>
0

> <PUBCHEM_ISOTOPIC_ATOM_COUNT>
0

> <PUBCHEM_COMPONENT_COUNT>
1

> <PUBCHEM_CACTVS_TAUTO_COUNT>
2

> <PUBCHEM_COORDINATE_TYPE>
1

> <PUBCHEM_BONDANNOTATIONS>
10  12  8

$$$$
