45320573
  CDK     0101151218

 36 36  0  0  0  0  0  0  0  0999 V2000
    3.7320   -0.0950    0.0000 O   0  0  0  0  0  0  0  0  0  0  0  0
    3.7320    1.9050    0.0000 O   0  0  0  0  0  0  0  0  0  0  0  0
    5.4641   -4.0950    0.0000 O   0  0  0  0  0  0  0  0  0  0  0  0
    6.3301   -2.5950    0.0000 O   0  0  0  0  0  0  0  0  0  0  0  0
    5.4641    1.9050    0.0000 N   0  0  0  0  0  0  0  0  0  0  0  0
    4.5981    0.4050    0.0000 C   0  0  3  0  0  0  0  0  0  0  0  0
    3.7320   -1.0950    0.0000 C   0  0  0  0  0  0  0  0  0  0  0  0
    2.8660   -1.5950    0.0000 C   0  0  0  0  0  0  0  0  0  0  0  0
    4.5981    1.4050    0.0000 C   0  0  0  0  0  0  0  0  0  0  0  0
    5.4641   -0.0950    0.0000 C   0  0  0  0  0  0  0  0  0  0  0  0
    4.5981   -1.5950    0.0000 C   0  0  0  0  0  0  0  0  0  0  0  0
    4.5981   -2.5950    0.0000 C   0  0  0  0  0  0  0  0  0  0  0  0
    2.8660   -2.5950    0.0000 C   0  0  0  0  0  0  0  0  0  0  0  0
    3.7320   -3.0950    0.0000 C   0  0  0  0  0  0  0  0  0  0  0  0
    2.0000   -1.0950    0.0000 C   0  0  0  0  0  0  0  0  0  0  0  0
    5.4641    2.9050    0.0000 C   0  0  0  0  0  0  0  0  0  0  0  0
    5.4641   -3.0950    0.0000 C   0  0  0  0  0  0  0  0  0  0  0  0
    6.3301    3.4050    0.0000 C   0  0  0  0  0  0  0  0  0  0  0  0
    6.3301    4.4050    0.0000 C   0  0  0  0  0  0  0  0  0  0  0  0
    4.5981   -0.2150    0.0000 H   0  0  0  0  0  0  0  0  0  0  0  0
    5.1541   -0.6319    0.0000 H   0  0  0  0  0  0  0  0  0  0  0  0
    6.0010   -0.4050    0.0000 H   0  0  0  0  0  0  0  0  0  0  0  0
    5.7741    0.4419    0.0000 H   0  0  0  0  0  0  0  0  0  0  0  0
    5.1350   -1.2850    0.0000 H   0  0  0  0  0  0  0  0  0  0  0  0
    2.3291   -2.9050    0.0000 H   0  0  0  0  0  0  0  0  0  0  0  0
    3.7320   -3.7150    0.0000 H   0  0  0  0  0  0  0  0  0  0  0  0
    2.3100   -0.5581    0.0000 H   0  0  0  0  0  0  0  0  0  0  0  0
    1.4631   -0.7850    0.0000 H   0  0  0  0  0  0  0  0  0  0  0  0
    1.6900   -1.6319    0.0000 H   0  0  0  0  0  0  0  0  0  0  0  0
    6.0010    1.5950    0.0000 H   0  0  0  0  0  0  0  0  0  0  0  0
    5.2520    3.4876    0.0000 H   0  0  0  0  0  0  0  0  0  0  0  0
    4.8535    2.7973    0.0000 H   0  0  0  0  0  0  0  0  0  0  0  0
    6.8671    3.0950    0.0000 H   0  0  0  0  0  0  0  0  0  0  0  0
    6.8671    4.7150    0.0000 H   0  0  0  0  0  0  0  0  0  0  0  0
    5.7932    4.7150    0.0000 H   0  0  0  0  0  0  0  0  0  0  0  0
    6.0010   -4.4050    0.0000 H   0  0  0  0  0  0  0  0  0  0  0  0
  1  6  1  0  0  0  0 
  1  7  1  0  0  0  0 
  2  9  2  0  0  0  0 
  3 17  1  0  0  0  0 
  3 36  1  0  0  0  0 
  4 17  2  0  0  0  0 
  5  9  1  0  0  0  0 
  5 16  1  0  0  0  0 
  5 30  1  0  0  0  0 
  6  9  1  0  0  0  0 
  6 10  1  0  0  0  0 
  6 20  1  0  0  0  0 
  7  8  2  0  0  0  0 
  7 11  1  0  0  0  0 
  8 13  1  0  0  0  0 
  8 15  1  0  0  0  0 
 10 21  1  0  0  0  0 
 10 22  1  0  0  0  0 
 10 23  1  0  0  0  0 
 11 12  2  0  0  0  0 
 11 24  1  0  0  0  0 
 12 14  1  0  0  0  0 
 12 17  1  0  0  0  0 
 13 14  2  0  0  0  0 
 13 25  1  0  0  0  0 
 14 26  1  0  0  0  0 
 15 27  1  0  0  0  0 
 15 28  1  0  0  0  0 
 15 29  1  0  0  0  0 
 16 18  1  0  0  0  0 
 16 31  1  0  0  0  0 
 16 32  1  0  0  0  0 
 18 19  2  0  0  0  0 
 18 33  1  0  0  0  0 
 19 34  1  0  0  0  0 
 19 35  1  0  0  0  0 
M  END
> <cdk:Title>
45320573

> <cdk:Remark>
null

> <PUBCHEM_COMPOUND_CID>
45320573

> <PUBCHEM_COMPOUND_CANONICALIZED>
1

> <PUBCHEM_CACTVS_COMPLEXITY>
342

> <PUBCHEM_CACTVS_HBOND_ACCEPTOR>
4

> <PUBCHEM_CACTVS_HBOND_DONOR>
2

> <PUBCHEM_CACTVS_ROTATABLE_BOND>
6

> <PUBCHEM_CACTVS_SUBSKEYS>
AAADceByOAAAAAAAAAAAAAAAAAAAAAAAAAAwAAAAAAAAAAABAAAAHgAQCAAADBThmAYyDoLABgCIAiHSGAKCCAAkIAAIiIFOCMgOJjKENR6HeSCk1hGYuYfKyDCOQAABAAAIAACAAAIAABAAAAAAAAAAAA==

> <PUBCHEM_IUPAC_OPENEYE_NAME>
3-[2-(allylamino)-1-methyl-2-oxo-ethoxy]-4-methyl-benzoic acid

> <PUBCHEM_IUPAC_CAS_NAME>
4-methyl-3-[1-oxo-1-(prop-2-enylamino)propan-2-yl]oxybenzoic acid

> <PUBCHEM_IUPAC_NAME>
4-methyl-3-[1-oxo-1-(prop-2-enylamino)propan-2-yl]oxybenzoic acid

> <PUBCHEM_IUPAC_SYSTEMATIC_NAME>
4-methyl-3-[1-oxidanylidene-1-(prop-2-enylamino)propan-2-yl]oxy-benzoic acid

> <PUBCHEM_IUPAC_TRADITIONAL_NAME>
3-[2-(allylamino)-2-keto-1-methyl-ethoxy]-4-methyl-benzoic acid

> <PUBCHEM_IUPAC_INCHI>
InChI=1S/C14H17NO4/c1-4-7-15-13(16)10(3)19-12-8-11(14(17)18)6-5-9(12)2/h4-6,8,10H,1,7H2,2-3H3,(H,15,16)(H,17,18)

> <PUBCHEM_IUPAC_INCHIKEY>
WKRCNJULYQOCGM-UHFFFAOYSA-N

> <PUBCHEM_XLOGP3_AA>
2.2

> <PUBCHEM_EXACT_MASS>
263.115758

> <PUBCHEM_MOLECULAR_FORMULA>
C14H17NO4

> <PUBCHEM_MOLECULAR_WEIGHT>
263.28908

> <PUBCHEM_OPENEYE_CAN_SMILES>
CC1=C(C=C(C=C1)C(=O)O)OC(C)C(=O)NCC=C

> <PUBCHEM_OPENEYE_ISO_SMILES>
CC1=C(C=C(C=C1)C(=O)O)OC(C)C(=O)NCC=C

> <PUBCHEM_CACTVS_TPSA>
75.6

> <PUBCHEM_MONOISOTOPIC_WEIGHT>
263.115758

> <PUBCHEM_TOTAL_CHARGE>
0

> <PUBCHEM_HEAVY_ATOM_COUNT>
19

> <PUBCHEM_ATOM_DEF_STEREO_COUNT>
0

> <PUBCHEM_ATOM_UDEF_STEREO_COUNT>
1

> <PUBCHEM_BOND_DEF_STEREO_COUNT>
0

> <PUBCHEM_BOND_UDEF_STEREO_COUNT>
0

> <PUBCHEM_ISOTOPIC_ATOM_COUNT>
0

> <PUBCHEM_COMPONENT_COUNT>
1

> <PUBCHEM_CACTVS_TAUTO_COUNT>
6

> <PUBCHEM_COORDINATE_TYPE>
1

> <PUBCHEM_BONDANNOTATIONS>
11  12  8

$$$$
