32215824
  CDK     0513152029

 44 47  0  0  0  0  0  0  0  0999 V2000
   10.1082   -1.3630    0.0000 F   0  0  0  0  0  0  0  0  0  0  0  0
   10.8784   -0.1770    0.0000 F   0  0  0  0  0  0  0  0  0  0  0  0
    8.9221   -0.5928    0.0000 F   0  0  0  0  0  0  0  0  0  0  0  0
    7.9128   -0.5000    0.0000 O   0  0  0  0  0  0  0  0  0  0  0  0
   14.3396    0.9183    0.0000 O   0  0  0  0  0  0  0  0  0  0  0  0
   10.3615    1.3364    0.0000 N   0  0  0  0  0  0  0  0  0  0  0  0
    9.8615    2.2024    0.0000 N   0  0  0  0  0  0  0  0  0  0  0  0
    7.0468    1.0000    0.0000 N   0  0  0  0  0  0  0  0  0  0  0  0
    3.5827   -1.0000    0.0000 N   0  0  0  0  0  0  0  0  0  0  0  0
   11.7628    0.3183    0.0000 N   0  0  0  0  0  0  0  0  0  0  0  0
    5.3147   -1.0000    0.0000 N   0  0  0  0  0  0  0  0  0  0  0  0
   12.7573    0.2138    0.0000 N   0  0  0  0  0  0  0  0  0  0  0  0
    2.0000   -1.3364    0.0000 N   0  0  0  0  0  0  0  0  0  0  0  0
    9.6924    0.5933    0.0000 C   0  0  0  0  0  0  0  0  0  0  0  0
    8.7788    1.0000    0.0000 C   0  0  0  0  0  0  0  0  0  0  0  0
    8.8834    1.9945    0.0000 C   0  0  0  0  0  0  0  0  0  0  0  0
    7.9128    0.5000    0.0000 C   0  0  0  0  0  0  0  0  0  0  0  0
    9.9003   -0.3849    0.0000 C   0  0  0  0  0  0  0  0  0  0  0  0
   11.3560    1.2319    0.0000 C   0  0  0  0  0  0  0  0  0  0  0  0
    6.1808    0.5000    0.0000 C   0  0  0  0  0  0  0  0  0  0  0  0
    4.4487   -0.5000    0.0000 C   0  0  0  0  0  0  0  0  0  0  0  0
   11.9438    2.0409    0.0000 C   0  0  0  0  0  0  0  0  0  0  0  0
    5.3147    1.0000    0.0000 C   0  0  0  0  0  0  0  0  0  0  0  0
    4.4487    0.5000    0.0000 C   0  0  0  0  0  0  0  0  0  0  0  0
    6.1808   -0.5000    0.0000 C   0  0  0  0  0  0  0  0  0  0  0  0
   12.9383    1.9364    0.0000 C   0  0  0  0  0  0  0  0  0  0  0  0
    3.4782   -1.9945    0.0000 C   0  0  0  0  0  0  0  0  0  0  0  0
   13.3451    1.0228    0.0000 C   0  0  0  0  0  0  0  0  0  0  0  0
    2.6691   -0.5933    0.0000 C   0  0  0  0  0  0  0  0  0  0  0  0
    2.5000   -2.2024    0.0000 C   0  0  0  0  0  0  0  0  0  0  0  0
   14.9274    1.7273    0.0000 C   0  0  0  0  0  0  0  0  0  0  0  0
    8.4226    2.4094    0.0000 H   0  0  0  0  0  0  0  0  0  0  0  0
    7.0468    1.6200    0.0000 H   0  0  0  0  0  0  0  0  0  0  0  0
   11.6916    2.6073    0.0000 H   0  0  0  0  0  0  0  0  0  0  0  0
    5.3147    1.6200    0.0000 H   0  0  0  0  0  0  0  0  0  0  0  0
    3.9118    0.8100    0.0000 H   0  0  0  0  0  0  0  0  0  0  0  0
    6.7177   -0.8100    0.0000 H   0  0  0  0  0  0  0  0  0  0  0  0
   13.3028    2.4380    0.0000 H   0  0  0  0  0  0  0  0  0  0  0  0
    3.9389   -2.4094    0.0000 H   0  0  0  0  0  0  0  0  0  0  0  0
    2.5402    0.0132    0.0000 H   0  0  0  0  0  0  0  0  0  0  0  0
    2.2478   -2.7688    0.0000 H   0  0  0  0  0  0  0  0  0  0  0  0
   15.4290    1.3629    0.0000 H   0  0  0  0  0  0  0  0  0  0  0  0
   15.2918    2.2289    0.0000 H   0  0  0  0  0  0  0  0  0  0  0  0
   14.4258    2.0917    0.0000 H   0  0  0  0  0  0  0  0  0  0  0  0
  1 18  1  0  0  0  0 
  2 18  1  0  0  0  0 
  3 18  1  0  0  0  0 
  4 17  2  0  0  0  0 
  5 28  1  0  0  0  0 
  5 31  1  0  0  0  0 
  6  7  1  0  0  0  0 
  6 14  1  0  0  0  0 
  6 19  1  0  0  0  0 
  7 16  2  0  0  0  0 
  8 17  1  0  0  0  0 
  8 20  1  0  0  0  0 
  8 33  1  0  0  0  0 
  9 21  1  0  0  0  0 
  9 27  1  0  0  0  0 
  9 29  1  0  0  0  0 
 10 12  1  0  0  0  0 
 10 19  2  0  0  0  0 
 11 21  2  0  0  0  0 
 11 25  1  0  0  0  0 
 12 28  2  0  0  0  0 
 13 29  2  0  0  0  0 
 13 30  1  0  0  0  0 
 14 15  2  0  0  0  0 
 14 18  1  0  0  0  0 
 15 16  1  0  0  0  0 
 15 17  1  0  0  0  0 
 16 32  1  0  0  0  0 
 19 22  1  0  0  0  0 
 20 23  1  0  0  0  0 
 20 25  2  0  0  0  0 
 21 24  1  0  0  0  0 
 22 26  2  0  0  0  0 
 22 34  1  0  0  0  0 
 23 24  2  0  0  0  0 
 23 35  1  0  0  0  0 
 24 36  1  0  0  0  0 
 25 37  1  0  0  0  0 
 26 28  1  0  0  0  0 
 26 38  1  0  0  0  0 
 27 30  2  0  0  0  0 
 27 39  1  0  0  0  0 
 29 40  1  0  0  0  0 
 30 41  1  0  0  0  0 
 31 42  1  0  0  0  0 
 31 43  1  0  0  0  0 
 31 44  1  0  0  0  0 
M  END
> <cdk:Title>
32215824

> <cdk:Remark>
null

> <PUBCHEM_COMPOUND_CID>
32215824

> <PUBCHEM_COMPOUND_CANONICALIZED>
1

> <PUBCHEM_CACTVS_COMPLEXITY>
627

> <PUBCHEM_CACTVS_HBOND_ACCEPTOR>
10

> <PUBCHEM_CACTVS_HBOND_DONOR>
1

> <PUBCHEM_CACTVS_ROTATABLE_BOND>
5

> <PUBCHEM_CACTVS_SUBSKEYS>
AAADccB78YAAAAAAAAAAAAAAAAAAAWLAAAAsWAAAAAAAAAAB/gAAHwAYAAAADAjBnhY/9JfMFACqAzd3dACSjC81sqAd2CE+fNiMbvrE+duUtahs3BPI6eYwAAAIAAAAAAAAAAAAAAAAAAAAAAAAAAAAAA==

> <PUBCHEM_IUPAC_OPENEYE_NAME>
N-(6-imidazol-1-yl-3-pyridyl)-1-(6-methoxypyridazin-3-yl)-5-(trifluoromethyl)pyrazole-4-carboxamide

> <PUBCHEM_IUPAC_CAS_NAME>
N-[6-(1-imidazolyl)-3-pyridinyl]-1-(6-methoxy-3-pyridazinyl)-5-(trifluoromethyl)-4-pyrazolecarboxamide

> <PUBCHEM_IUPAC_NAME>
N-(6-imidazol-1-ylpyridin-3-yl)-1-(6-methoxypyridazin-3-yl)-5-(trifluoromethyl)pyrazole-4-carboxamide

> <PUBCHEM_IUPAC_SYSTEMATIC_NAME>
N-(6-imidazol-1-ylpyridin-3-yl)-1-(6-methoxypyridazin-3-yl)-5-(trifluoromethyl)pyrazole-4-carboxamide

> <PUBCHEM_IUPAC_TRADITIONAL_NAME>
N-(6-imidazol-1-yl-3-pyridyl)-1-(6-methoxypyridazin-3-yl)-5-(trifluoromethyl)pyrazole-4-carboxamide

> <PUBCHEM_IUPAC_INCHI>
InChI=1S/C18H13F3N8O2/c1-31-15-5-4-14(26-27-15)29-16(18(19,20)21)12(9-24-29)17(30)25-11-2-3-13(23-8-11)28-7-6-22-10-28/h2-10H,1H3,(H,25,30)

> <PUBCHEM_IUPAC_INCHIKEY>
ASOVABWGKLBTJH-UHFFFAOYSA-N

> <PUBCHEM_XLOGP3_AA>
1.2

> <PUBCHEM_EXACT_MASS>
430.111356

> <PUBCHEM_MOLECULAR_FORMULA>
C18H13F3N8O2

> <PUBCHEM_MOLECULAR_WEIGHT>
430.34343

> <PUBCHEM_OPENEYE_CAN_SMILES>
COC1=NN=C(C=C1)N2C(=C(C=N2)C(=O)NC3=CN=C(C=C3)N4C=CN=C4)C(F)(F)F

> <PUBCHEM_OPENEYE_ISO_SMILES>
COC1=NN=C(C=C1)N2C(=C(C=N2)C(=O)NC3=CN=C(C=C3)N4C=CN=C4)C(F)(F)F

> <PUBCHEM_CACTVS_TPSA>
113

> <PUBCHEM_MONOISOTOPIC_WEIGHT>
430.111356

> <PUBCHEM_TOTAL_CHARGE>
0

> <PUBCHEM_HEAVY_ATOM_COUNT>
31

> <PUBCHEM_ATOM_DEF_STEREO_COUNT>
0

> <PUBCHEM_ATOM_UDEF_STEREO_COUNT>
0

> <PUBCHEM_BOND_DEF_STEREO_COUNT>
0

> <PUBCHEM_BOND_UDEF_STEREO_COUNT>
0

> <PUBCHEM_ISOTOPIC_ATOM_COUNT>
0

> <PUBCHEM_COMPONENT_COUNT>
1

> <PUBCHEM_CACTVS_TAUTO_COUNT>
2

> <PUBCHEM_COORDINATE_TYPE>
1

> <PUBCHEM_BONDANNOTATIONS>
10  12  8

$$$$
32215824
  CDK     0513152035

 44 47  0  0  0  0  0  0  0  0999 V2000
   10.1082   -1.3630    0.0000 F   0  0  0  0  0  0  0  0  0  0  0  0
   10.8784   -0.1770    0.0000 F   0  0  0  0  0  0  0  0  0  0  0  0
    8.9221   -0.5928    0.0000 F   0  0  0  0  0  0  0  0  0  0  0  0
    7.9128   -0.5000    0.0000 O   0  0  0  0  0  0  0  0  0  0  0  0
   14.3396    0.9183    0.0000 O   0  0  0  0  0  0  0  0  0  0  0  0
   10.3615    1.3364    0.0000 N   0  0  0  0  0  0  0  0  0  0  0  0
    9.8615    2.2024    0.0000 N   0  0  0  0  0  0  0  0  0  0  0  0
    7.0468    1.0000    0.0000 N   0  0  0  0  0  0  0  0  0  0  0  0
    3.5827   -1.0000    0.0000 N   0  0  0  0  0  0  0  0  0  0  0  0
   11.7628    0.3183    0.0000 N   0  0  0  0  0  0  0  0  0  0  0  0
    5.3147   -1.0000    0.0000 N   0  0  0  0  0  0  0  0  0  0  0  0
   12.7573    0.2138    0.0000 N   0  0  0  0  0  0  0  0  0  0  0  0
    2.0000   -1.3364    0.0000 N   0  0  0  0  0  0  0  0  0  0  0  0
    9.6924    0.5933    0.0000 C   0  0  0  0  0  0  0  0  0  0  0  0
    8.7788    1.0000    0.0000 C   0  0  0  0  0  0  0  0  0  0  0  0
    8.8834    1.9945    0.0000 C   0  0  0  0  0  0  0  0  0  0  0  0
    7.9128    0.5000    0.0000 C   0  0  0  0  0  0  0  0  0  0  0  0
    9.9003   -0.3849    0.0000 C   0  0  0  0  0  0  0  0  0  0  0  0
   11.3560    1.2319    0.0000 C   0  0  0  0  0  0  0  0  0  0  0  0
    6.1808    0.5000    0.0000 C   0  0  0  0  0  0  0  0  0  0  0  0
    4.4487   -0.5000    0.0000 C   0  0  0  0  0  0  0  0  0  0  0  0
   11.9438    2.0409    0.0000 C   0  0  0  0  0  0  0  0  0  0  0  0
    5.3147    1.0000    0.0000 C   0  0  0  0  0  0  0  0  0  0  0  0
    4.4487    0.5000    0.0000 C   0  0  0  0  0  0  0  0  0  0  0  0
    6.1808   -0.5000    0.0000 C   0  0  0  0  0  0  0  0  0  0  0  0
   12.9383    1.9364    0.0000 C   0  0  0  0  0  0  0  0  0  0  0  0
    3.4782   -1.9945    0.0000 C   0  0  0  0  0  0  0  0  0  0  0  0
   13.3451    1.0228    0.0000 C   0  0  0  0  0  0  0  0  0  0  0  0
    2.6691   -0.5933    0.0000 C   0  0  0  0  0  0  0  0  0  0  0  0
    2.5000   -2.2024    0.0000 C   0  0  0  0  0  0  0  0  0  0  0  0
   14.9274    1.7273    0.0000 C   0  0  0  0  0  0  0  0  0  0  0  0
    8.4226    2.4094    0.0000 H   0  0  0  0  0  0  0  0  0  0  0  0
    7.0468    1.6200    0.0000 H   0  0  0  0  0  0  0  0  0  0  0  0
   11.6916    2.6073    0.0000 H   0  0  0  0  0  0  0  0  0  0  0  0
    5.3147    1.6200    0.0000 H   0  0  0  0  0  0  0  0  0  0  0  0
    3.9118    0.8100    0.0000 H   0  0  0  0  0  0  0  0  0  0  0  0
    6.7177   -0.8100    0.0000 H   0  0  0  0  0  0  0  0  0  0  0  0
   13.3028    2.4380    0.0000 H   0  0  0  0  0  0  0  0  0  0  0  0
    3.9389   -2.4094    0.0000 H   0  0  0  0  0  0  0  0  0  0  0  0
    2.5402    0.0132    0.0000 H   0  0  0  0  0  0  0  0  0  0  0  0
    2.2478   -2.7688    0.0000 H   0  0  0  0  0  0  0  0  0  0  0  0
   15.4290    1.3629    0.0000 H   0  0  0  0  0  0  0  0  0  0  0  0
   15.2918    2.2289    0.0000 H   0  0  0  0  0  0  0  0  0  0  0  0
   14.4258    2.0917    0.0000 H   0  0  0  0  0  0  0  0  0  0  0  0
  1 18  1  0  0  0  0 
  2 18  1  0  0  0  0 
  3 18  1  0  0  0  0 
  4 17  2  0  0  0  0 
  5 28  1  0  0  0  0 
  5 31  1  0  0  0  0 
  6  7  1  0  0  0  0 
  6 14  1  0  0  0  0 
  6 19  1  0  0  0  0 
  7 16  2  0  0  0  0 
  8 17  1  0  0  0  0 
  8 20  1  0  0  0  0 
  8 33  1  0  0  0  0 
  9 21  1  0  0  0  0 
  9 27  1  0  0  0  0 
  9 29  1  0  0  0  0 
 10 12  1  0  0  0  0 
 10 19  2  0  0  0  0 
 11 21  2  0  0  0  0 
 11 25  1  0  0  0  0 
 12 28  2  0  0  0  0 
 13 29  2  0  0  0  0 
 13 30  1  0  0  0  0 
 14 15  2  0  0  0  0 
 14 18  1  0  0  0  0 
 15 16  1  0  0  0  0 
 15 17  1  0  0  0  0 
 16 32  1  0  0  0  0 
 19 22  1  0  0  0  0 
 20 23  1  0  0  0  0 
 20 25  2  0  0  0  0 
 21 24  1  0  0  0  0 
 22 26  2  0  0  0  0 
 22 34  1  0  0  0  0 
 23 24  2  0  0  0  0 
 23 35  1  0  0  0  0 
 24 36  1  0  0  0  0 
 25 37  1  0  0  0  0 
 26 28  1  0  0  0  0 
 26 38  1  0  0  0  0 
 27 30  2  0  0  0  0 
 27 39  1  0  0  0  0 
 29 40  1  0  0  0  0 
 30 41  1  0  0  0  0 
 31 42  1  0  0  0  0 
 31 43  1  0  0  0  0 
 31 44  1  0  0  0  0 
M  END
> <cdk:Title>
32215824

> <cdk:Remark>
null

> <PUBCHEM_COMPOUND_CID>
32215824

> <PUBCHEM_COMPOUND_CANONICALIZED>
1

> <PUBCHEM_CACTVS_COMPLEXITY>
627

> <PUBCHEM_CACTVS_HBOND_ACCEPTOR>
10

> <PUBCHEM_CACTVS_HBOND_DONOR>
1

> <PUBCHEM_CACTVS_ROTATABLE_BOND>
5

> <PUBCHEM_CACTVS_SUBSKEYS>
AAADccB78YAAAAAAAAAAAAAAAAAAAWLAAAAsWAAAAAAAAAAB/gAAHwAYAAAADAjBnhY/9JfMFACqAzd3dACSjC81sqAd2CE+fNiMbvrE+duUtahs3BPI6eYwAAAIAAAAAAAAAAAAAAAAAAAAAAAAAAAAAA==

> <PUBCHEM_IUPAC_OPENEYE_NAME>
N-(6-imidazol-1-yl-3-pyridyl)-1-(6-methoxypyridazin-3-yl)-5-(trifluoromethyl)pyrazole-4-carboxamide

> <PUBCHEM_IUPAC_CAS_NAME>
N-[6-(1-imidazolyl)-3-pyridinyl]-1-(6-methoxy-3-pyridazinyl)-5-(trifluoromethyl)-4-pyrazolecarboxamide

> <PUBCHEM_IUPAC_NAME>
N-(6-imidazol-1-ylpyridin-3-yl)-1-(6-methoxypyridazin-3-yl)-5-(trifluoromethyl)pyrazole-4-carboxamide

> <PUBCHEM_IUPAC_SYSTEMATIC_NAME>
N-(6-imidazol-1-ylpyridin-3-yl)-1-(6-methoxypyridazin-3-yl)-5-(trifluoromethyl)pyrazole-4-carboxamide

> <PUBCHEM_IUPAC_TRADITIONAL_NAME>
N-(6-imidazol-1-yl-3-pyridyl)-1-(6-methoxypyridazin-3-yl)-5-(trifluoromethyl)pyrazole-4-carboxamide

> <PUBCHEM_IUPAC_INCHI>
InChI=1S/C18H13F3N8O2/c1-31-15-5-4-14(26-27-15)29-16(18(19,20)21)12(9-24-29)17(30)25-11-2-3-13(23-8-11)28-7-6-22-10-28/h2-10H,1H3,(H,25,30)

> <PUBCHEM_IUPAC_INCHIKEY>
ASOVABWGKLBTJH-UHFFFAOYSA-N

> <PUBCHEM_XLOGP3_AA>
1.2

> <PUBCHEM_EXACT_MASS>
430.111356

> <PUBCHEM_MOLECULAR_FORMULA>
C18H13F3N8O2

> <PUBCHEM_MOLECULAR_WEIGHT>
430.34343

> <PUBCHEM_OPENEYE_CAN_SMILES>
COC1=NN=C(C=C1)N2C(=C(C=N2)C(=O)NC3=CN=C(C=C3)N4C=CN=C4)C(F)(F)F

> <PUBCHEM_OPENEYE_ISO_SMILES>
COC1=NN=C(C=C1)N2C(=C(C=N2)C(=O)NC3=CN=C(C=C3)N4C=CN=C4)C(F)(F)F

> <PUBCHEM_CACTVS_TPSA>
113

> <PUBCHEM_MONOISOTOPIC_WEIGHT>
430.111356

> <PUBCHEM_TOTAL_CHARGE>
0

> <PUBCHEM_HEAVY_ATOM_COUNT>
31

> <PUBCHEM_ATOM_DEF_STEREO_COUNT>
0

> <PUBCHEM_ATOM_UDEF_STEREO_COUNT>
0

> <PUBCHEM_BOND_DEF_STEREO_COUNT>
0

> <PUBCHEM_BOND_UDEF_STEREO_COUNT>
0

> <PUBCHEM_ISOTOPIC_ATOM_COUNT>
0

> <PUBCHEM_COMPONENT_COUNT>
1

> <PUBCHEM_CACTVS_TAUTO_COUNT>
2

> <PUBCHEM_COORDINATE_TYPE>
1

> <PUBCHEM_BONDANNOTATIONS>
10  12  8

$$$$
