33709847
  CDK     0202151410

 66 69  0  0  0  0  0  0  0  0999 V2000
    7.4282   -3.9268    0.0000 F   0  0  0  0  0  0  0  0  0  0  0  0
    7.6279    1.3244    0.0000 O   0  0  0  0  0  0  0  0  0  0  0  0
   11.2439   -1.0310    0.0000 O   0  0  0  0  0  0  0  0  0  0  0  0
    9.1279    2.1904    0.0000 O   0  0  0  0  0  0  0  0  0  0  0  0
    3.7320    4.1904    0.0000 O   0  0  0  0  0  0  0  0  0  0  0  0
    2.0000    1.1904    0.0000 O   0  0  0  0  0  0  0  0  0  0  0  0
    9.4643   -1.1243    0.0000 N   0  0  0  0  0  0  0  0  0  0  0  0
    5.5443    2.9951    0.0000 N   0  0  0  0  0  0  0  0  0  0  0  0
    3.7320    1.1904    0.0000 N   0  0  0  0  0  0  0  0  0  0  0  0
    5.5443    1.3857    0.0000 N   0  0  0  0  0  0  0  0  0  0  0  0
    2.8660    2.6904    0.0000 N   0  0  0  0  0  0  0  0  0  0  0  0
    9.1279    0.4584    0.0000 C   0  0  2  0  0  0  0  0  0  0  0  0
    8.7212   -0.4552    0.0000 C   0  0  0  0  0  0  0  0  0  0  0  0
   10.1224    0.3538    0.0000 C   0  0  0  0  0  0  0  0  0  0  0  0
   10.3303   -0.6243    0.0000 C   0  0  0  0  0  0  0  0  0  0  0  0
    8.6279    1.3244    0.0000 C   0  0  0  0  0  0  0  0  0  0  0  0
    4.5981    2.6904    0.0000 C   0  0  0  0  0  0  0  0  0  0  0  0
    6.1279    2.1904    0.0000 C   0  0  0  0  0  0  0  0  0  0  0  0
    4.5981    1.6904    0.0000 C   0  0  0  0  0  0  0  0  0  0  0  0
    9.3598   -2.1188    0.0000 C   0  0  0  0  0  0  0  0  0  0  0  0
    5.8550    3.9457    0.0000 C   0  0  0  0  0  0  0  0  0  0  0  0
    7.1279    2.1904    0.0000 C   0  0  0  0  0  0  0  0  0  0  0  0
    3.7320    0.1904    0.0000 C   0  0  0  0  0  0  0  0  0  0  0  0
    2.8660   -0.3096    0.0000 C   0  0  0  0  0  0  0  0  0  0  0  0
    3.7320    3.1904    0.0000 C   0  0  0  0  0  0  0  0  0  0  0  0
    6.8335    4.1519    0.0000 C   0  0  0  0  0  0  0  0  0  0  0  0
    2.8660    1.6904    0.0000 C   0  0  0  0  0  0  0  0  0  0  0  0
    8.4462   -2.5256    0.0000 C   0  0  0  0  0  0  0  0  0  0  0  0
   10.1688   -2.7066    0.0000 C   0  0  0  0  0  0  0  0  0  0  0  0
    2.8660   -1.3096    0.0000 C   0  0  0  0  0  0  0  0  0  0  0  0
    7.1441    5.1024    0.0000 C   0  0  0  0  0  0  0  0  0  0  0  0
    8.3417   -3.5201    0.0000 C   0  0  0  0  0  0  0  0  0  0  0  0
   10.0643   -3.7011    0.0000 C   0  0  0  0  0  0  0  0  0  0  0  0
    9.1507   -4.1079    0.0000 C   0  0  0  0  0  0  0  0  0  0  0  0
    2.0000   -1.8096    0.0000 C   0  0  0  0  0  0  0  0  0  0  0  0
    9.0462   -5.1024    0.0000 C   0  0  0  0  0  0  0  0  0  0  0  0
    8.5087    0.4259    0.0000 H   0  0  0  0  0  0  0  0  0  0  0  0
    8.1842   -0.1452    0.0000 H   0  0  0  0  0  0  0  0  0  0  0  0
    8.3567   -0.9568    0.0000 H   0  0  0  0  0  0  0  0  0  0  0  0
   10.7390    0.4186    0.0000 H   0  0  0  0  0  0  0  0  0  0  0  0
   10.1224    0.9738    0.0000 H   0  0  0  0  0  0  0  0  0  0  0  0
    5.8344    4.5653    0.0000 H   0  0  0  0  0  0  0  0  0  0  0  0
    5.2411    4.0330    0.0000 H   0  0  0  0  0  0  0  0  0  0  0  0
    7.7105    2.4025    0.0000 H   0  0  0  0  0  0  0  0  0  0  0  0
    7.0202    2.8010    0.0000 H   0  0  0  0  0  0  0  0  0  0  0  0
    3.9441   -0.3922    0.0000 H   0  0  0  0  0  0  0  0  0  0  0  0
    4.3426    0.2981    0.0000 H   0  0  0  0  0  0  0  0  0  0  0  0
    2.6540    0.2730    0.0000 H   0  0  0  0  0  0  0  0  0  0  0  0
    2.2554   -0.4173    0.0000 H   0  0  0  0  0  0  0  0  0  0  0  0
    6.8540    3.5322    0.0000 H   0  0  0  0  0  0  0  0  0  0  0  0
    7.4473    4.0645    0.0000 H   0  0  0  0  0  0  0  0  0  0  0  0
    7.9446   -2.1612    0.0000 H   0  0  0  0  0  0  0  0  0  0  0  0
   10.7352   -2.4544    0.0000 H   0  0  0  0  0  0  0  0  0  0  0  0
    2.3291    3.0004    0.0000 H   0  0  0  0  0  0  0  0  0  0  0  0
    3.0781   -1.8922    0.0000 H   0  0  0  0  0  0  0  0  0  0  0  0
    3.4766   -1.2019    0.0000 H   0  0  0  0  0  0  0  0  0  0  0  0
    7.7334    4.9098    0.0000 H   0  0  0  0  0  0  0  0  0  0  0  0
    7.3367    5.6917    0.0000 H   0  0  0  0  0  0  0  0  0  0  0  0
    6.5548    5.2950    0.0000 H   0  0  0  0  0  0  0  0  0  0  0  0
   10.5659   -4.0656    0.0000 H   0  0  0  0  0  0  0  0  0  0  0  0
    1.6900   -1.2726    0.0000 H   0  0  0  0  0  0  0  0  0  0  0  0
    1.4631   -2.1196    0.0000 H   0  0  0  0  0  0  0  0  0  0  0  0
    2.3100   -2.3465    0.0000 H   0  0  0  0  0  0  0  0  0  0  0  0
    8.4296   -5.0376    0.0000 H   0  0  0  0  0  0  0  0  0  0  0  0
    8.9814   -5.7190    0.0000 H   0  0  0  0  0  0  0  0  0  0  0  0
    9.6628   -5.1672    0.0000 H   0  0  0  0  0  0  0  0  0  0  0  0
  1 32  1  0  0  0  0 
  2 16  1  0  0  0  0 
  2 22  1  0  0  0  0 
  3 15  2  0  0  0  0 
  4 16  2  0  0  0  0 
  5 25  2  0  0  0  0 
  6 27  2  0  0  0  0 
  7 13  1  0  0  0  0 
  7 15  1  0  0  0  0 
  7 20  1  0  0  0  0 
  8 17  1  0  0  0  0 
  8 18  1  0  0  0  0 
  8 21  1  0  0  0  0 
  9 19  1  0  0  0  0 
  9 23  1  0  0  0  0 
  9 27  1  0  0  0  0 
 10 18  2  0  0  0  0 
 10 19  1  0  0  0  0 
 11 25  1  0  0  0  0 
 11 27  1  0  0  0  0 
 11 54  1  0  0  0  0 
 12 13  1  0  0  0  0 
 12 14  1  0  0  0  0 
 12 16  1  1  0  0  0 
 12 37  1  0  0  0  0 
 13 38  1  0  0  0  0 
 13 39  1  0  0  0  0 
 14 15  1  0  0  0  0 
 14 40  1  0  0  0  0 
 14 41  1  0  0  0  0 
 17 19  2  0  0  0  0 
 17 25  1  0  0  0  0 
 18 22  1  0  0  0  0 
 20 28  2  0  0  0  0 
 20 29  1  0  0  0  0 
 21 26  1  0  0  0  0 
 21 42  1  0  0  0  0 
 21 43  1  0  0  0  0 
 22 44  1  0  0  0  0 
 22 45  1  0  0  0  0 
 23 24  1  0  0  0  0 
 23 46  1  0  0  0  0 
 23 47  1  0  0  0  0 
 24 30  1  0  0  0  0 
 24 48  1  0  0  0  0 
 24 49  1  0  0  0  0 
 26 31  1  0  0  0  0 
 26 50  1  0  0  0  0 
 26 51  1  0  0  0  0 
 28 32  1  0  0  0  0 
 28 52  1  0  0  0  0 
 29 33  2  0  0  0  0 
 29 53  1  0  0  0  0 
 30 35  1  0  0  0  0 
 30 55  1  0  0  0  0 
 30 56  1  0  0  0  0 
 31 57  1  0  0  0  0 
 31 58  1  0  0  0  0 
 31 59  1  0  0  0  0 
 32 34  2  0  0  0  0 
 33 34  1  0  0  0  0 
 33 60  1  0  0  0  0 
 34 36  1  0  0  0  0 
 35 61  1  0  0  0  0 
 35 62  1  0  0  0  0 
 35 63  1  0  0  0  0 
 36 64  1  0  0  0  0 
 36 65  1  0  0  0  0 
 36 66  1  0  0  0  0 
M  END
> <cdk:Title>
33709847

> <cdk:Remark>
null

> <PUBCHEM_COMPOUND_CID>
33709847

> <PUBCHEM_COMPOUND_CANONICALIZED>
1

> <PUBCHEM_CACTVS_COMPLEXITY>
859

> <PUBCHEM_CACTVS_HBOND_ACCEPTOR>
7

> <PUBCHEM_CACTVS_HBOND_DONOR>
1

> <PUBCHEM_CACTVS_ROTATABLE_BOND>
10

> <PUBCHEM_CACTVS_SUBSKEYS>
AAADceB7uQAAAAAAAAAAAAAAAAAAAWLAAAA8QAAAAAAAAFgBwAAAHwAQAAAADQjhnw4z+JfMFACoAyfyfASCgC0nEqAJ2AG4dMiKaDrA2bGXIIhuhyLYyGc3gAAOCAAAAAAAAAAQAAAAAAAAAAAAAAAAAA==

> <PUBCHEM_IUPAC_OPENEYE_NAME>
(3-butyl-2,6-dioxo-7-propyl-purin-8-yl)methyl (3S)-1-(3-fluoro-4-methyl-phenyl)-5-oxo-pyrrolidine-3-carboxylate

> <PUBCHEM_IUPAC_CAS_NAME>
(3S)-1-(3-fluoro-4-methylphenyl)-5-oxo-3-pyrrolidinecarboxylic acid (3-butyl-2,6-dioxo-7-propyl-8-purinyl)methyl ester

> <PUBCHEM_IUPAC_NAME>
(3-butyl-2,6-dioxo-7-propylpurin-8-yl)methyl (3S)-1-(3-fluoro-4-methylphenyl)-5-oxopyrrolidine-3-carboxylate

> <PUBCHEM_IUPAC_SYSTEMATIC_NAME>
[3-butyl-2,6-bis(oxidanylidene)-7-propyl-purin-8-yl]methyl (3S)-1-(3-fluoranyl-4-methyl-phenyl)-5-oxidanylidene-pyrrolidine-3-carboxylate

> <PUBCHEM_IUPAC_TRADITIONAL_NAME>
(3S)-1-(3-fluoro-4-methyl-phenyl)-5-keto-pyrrolidine-3-carboxylic acid (3-butyl-2,6-diketo-7-propyl-purin-8-yl)methyl ester

> <PUBCHEM_IUPAC_INCHI>
InChI=1S/C25H30FN5O5/c1-4-6-10-30-22-21(23(33)28-25(30)35)29(9-5-2)19(27-22)14-36-24(34)16-11-20(32)31(13-16)17-8-7-15(3)18(26)12-17/h7-8,12,16H,4-6,9-11,13-14H2,1-3H3,(H,28,33,35)/t16-/m0/s1

> <PUBCHEM_IUPAC_INCHIKEY>
HLVQTKKVAVAEOU-INIZCTEOSA-N

> <PUBCHEM_XLOGP3_AA>
2.4

> <PUBCHEM_EXACT_MASS>
499.223097

> <PUBCHEM_MOLECULAR_FORMULA>
C25H30FN5O5

> <PUBCHEM_MOLECULAR_WEIGHT>
499.534603

> <PUBCHEM_OPENEYE_CAN_SMILES>
CCCCN1C2=C(C(=O)NC1=O)N(C(=N2)COC(=O)C3CC(=O)N(C3)C4=CC(=C(C=C4)C)F)CCC

> <PUBCHEM_OPENEYE_ISO_SMILES>
CCCCN1C2=C(C(=O)NC1=O)N(C(=N2)COC(=O)[C@H]3CC(=O)N(C3)C4=CC(=C(C=C4)C)F)CCC

> <PUBCHEM_CACTVS_TPSA>
114

> <PUBCHEM_MONOISOTOPIC_WEIGHT>
499.223097

> <PUBCHEM_TOTAL_CHARGE>
0

> <PUBCHEM_HEAVY_ATOM_COUNT>
36

> <PUBCHEM_ATOM_DEF_STEREO_COUNT>
1

> <PUBCHEM_ATOM_UDEF_STEREO_COUNT>
0

> <PUBCHEM_BOND_DEF_STEREO_COUNT>
0

> <PUBCHEM_BOND_UDEF_STEREO_COUNT>
0

> <PUBCHEM_ISOTOPIC_ATOM_COUNT>
0

> <PUBCHEM_COMPONENT_COUNT>
1

> <PUBCHEM_CACTVS_TAUTO_COUNT>
6

> <PUBCHEM_COORDINATE_TYPE>
1

> <PUBCHEM_BONDANNOTATIONS>
10  18  8

$$$$
