40382685
  CDK     0202151413

 50 54  0  0  0  0  0  0  0  0999 V2000
   14.4194   -1.4060    0.0000 O   0  0  0  0  0  0  0  0  0  0  0  0
   10.0091   -1.1012    0.0000 O   0  0  0  0  0  0  0  0  0  0  0  0
    3.5823    0.3171    0.0000 O   0  0  0  0  0  0  0  0  0  0  0  0
   14.4194    0.2035    0.0000 N   0  0  0  0  0  0  0  0  0  0  0  0
   10.8751    0.3988    0.0000 N   0  0  0  0  0  0  0  0  0  0  0  0
    7.5604    0.7352    0.0000 N   0  0  0  0  0  0  0  0  0  0  0  0
    8.0604    1.6012    0.0000 N   0  0  0  0  0  0  0  0  0  0  0  0
    5.9781    1.4397    0.0000 N   0  0  0  0  0  0  0  0  0  0  0  0
    4.9836    1.3352    0.0000 N   0  0  0  0  0  0  0  0  0  0  0  0
   16.0030   -0.6012    0.0000 C   0  0  0  0  0  0  0  0  0  0  0  0
   16.8691   -0.1012    0.0000 C   0  0  0  0  0  0  0  0  0  0  0  0
   16.8691   -1.1012    0.0000 C   0  0  0  0  0  0  0  0  0  0  0  0
   15.0030   -0.6012    0.0000 C   0  0  0  0  0  0  0  0  0  0  0  0
   13.4732   -0.1012    0.0000 C   0  0  0  0  0  0  0  0  0  0  0  0
   13.4732   -1.1012    0.0000 C   0  0  0  0  0  0  0  0  0  0  0  0
   12.6072    0.3988    0.0000 C   0  0  0  0  0  0  0  0  0  0  0  0
   12.6072   -1.6012    0.0000 C   0  0  0  0  0  0  0  0  0  0  0  0
   11.7411   -0.1012    0.0000 C   0  0  0  0  0  0  0  0  0  0  0  0
   11.7411   -1.1012    0.0000 C   0  0  0  0  0  0  0  0  0  0  0  0
    9.1431    0.3988    0.0000 C   0  0  0  0  0  0  0  0  0  0  0  0
   10.0091   -0.1012    0.0000 C   0  0  0  0  0  0  0  0  0  0  0  0
    8.2295   -0.0080    0.0000 C   0  0  0  0  0  0  0  0  0  0  0  0
    9.0385    1.3933    0.0000 C   0  0  0  0  0  0  0  0  0  0  0  0
    8.0216   -0.9861    0.0000 C   0  0  0  0  0  0  0  0  0  0  0  0
    6.5659    0.6307    0.0000 C   0  0  0  0  0  0  0  0  0  0  0  0
    6.1591   -0.2829    0.0000 C   0  0  0  0  0  0  0  0  0  0  0  0
    5.1646   -0.3874    0.0000 C   0  0  0  0  0  0  0  0  0  0  0  0
    4.5768    0.4216    0.0000 C   0  0  0  0  0  0  0  0  0  0  0  0
    2.9945    1.1261    0.0000 C   0  0  0  0  0  0  0  0  0  0  0  0
    2.0000    1.0216    0.0000 C   0  0  0  0  0  0  0  0  0  0  0  0
   15.8426   -0.0023    0.0000 H   0  0  0  0  0  0  0  0  0  0  0  0
   16.6570   -1.6838    0.0000 H   0  0  0  0  0  0  0  0  0  0  0  0
   17.4796   -1.2089    0.0000 H   0  0  0  0  0  0  0  0  0  0  0  0
   17.4796    0.0064    0.0000 H   0  0  0  0  0  0  0  0  0  0  0  0
   16.6570    0.4814    0.0000 H   0  0  0  0  0  0  0  0  0  0  0  0
   12.6072    1.0188    0.0000 H   0  0  0  0  0  0  0  0  0  0  0  0
   12.6072   -2.2212    0.0000 H   0  0  0  0  0  0  0  0  0  0  0  0
   11.2042   -1.4112    0.0000 H   0  0  0  0  0  0  0  0  0  0  0  0
   10.8751    1.0188    0.0000 H   0  0  0  0  0  0  0  0  0  0  0  0
    9.4993    1.8082    0.0000 H   0  0  0  0  0  0  0  0  0  0  0  0
    7.4152   -0.8572    0.0000 H   0  0  0  0  0  0  0  0  0  0  0  0
    7.8927   -1.5926    0.0000 H   0  0  0  0  0  0  0  0  0  0  0  0
    8.6281   -1.1150    0.0000 H   0  0  0  0  0  0  0  0  0  0  0  0
    6.5236   -0.7845    0.0000 H   0  0  0  0  0  0  0  0  0  0  0  0
    4.9124   -0.9538    0.0000 H   0  0  0  0  0  0  0  0  0  0  0  0
    3.5518    1.3979    0.0000 H   0  0  0  0  0  0  0  0  0  0  0  0
    2.8236    1.7221    0.0000 H   0  0  0  0  0  0  0  0  0  0  0  0
    1.9352    1.6382    0.0000 H   0  0  0  0  0  0  0  0  0  0  0  0
    1.3834    0.9568    0.0000 H   0  0  0  0  0  0  0  0  0  0  0  0
    2.0648    0.4050    0.0000 H   0  0  0  0  0  0  0  0  0  0  0  0
  1 13  1  0  0  0  0 
  1 15  1  0  0  0  0 
  2 21  2  0  0  0  0 
  3 28  1  0  0  0  0 
  3 29  1  0  0  0  0 
  4 13  2  0  0  0  0 
  4 14  1  0  0  0  0 
  5 18  1  0  0  0  0 
  5 21  1  0  0  0  0 
  5 39  1  0  0  0  0 
  6  7  1  0  0  0  0 
  6 22  1  0  0  0  0 
  6 25  1  0  0  0  0 
  7 23  2  0  0  0  0 
  8  9  1  0  0  0  0 
  8 25  2  0  0  0  0 
  9 28  2  0  0  0  0 
 10 11  1  0  0  0  0 
 10 12  1  0  0  0  0 
 10 13  1  0  0  0  0 
 10 31  1  0  0  0  0 
 11 12  1  0  0  0  0 
 11 34  1  0  0  0  0 
 11 35  1  0  0  0  0 
 12 32  1  0  0  0  0 
 12 33  1  0  0  0  0 
 14 15  2  0  0  0  0 
 14 16  1  0  0  0  0 
 15 17  1  0  0  0  0 
 16 18  2  0  0  0  0 
 16 36  1  0  0  0  0 
 17 19  2  0  0  0  0 
 17 37  1  0  0  0  0 
 18 19  1  0  0  0  0 
 19 38  1  0  0  0  0 
 20 21  1  0  0  0  0 
 20 22  2  0  0  0  0 
 20 23  1  0  0  0  0 
 22 24  1  0  0  0  0 
 23 40  1  0  0  0  0 
 24 41  1  0  0  0  0 
 24 42  1  0  0  0  0 
 24 43  1  0  0  0  0 
 25 26  1  0  0  0  0 
 26 27  2  0  0  0  0 
 26 44  1  0  0  0  0 
 27 28  1  0  0  0  0 
 27 45  1  0  0  0  0 
 29 30  1  0  0  0  0 
 29 46  1  0  0  0  0 
 29 47  1  0  0  0  0 
 30 48  1  0  0  0  0 
 30 49  1  0  0  0  0 
 30 50  1  0  0  0  0 
M  END
> <cdk:Title>
40382685

> <cdk:Remark>
null

> <PUBCHEM_COMPOUND_CID>
40382685

> <PUBCHEM_COMPOUND_CANONICALIZED>
1

> <PUBCHEM_CACTVS_COMPLEXITY>
620

> <PUBCHEM_CACTVS_HBOND_ACCEPTOR>
7

> <PUBCHEM_CACTVS_HBOND_DONOR>
1

> <PUBCHEM_CACTVS_ROTATABLE_BOND>
6

> <PUBCHEM_CACTVS_SUBSKEYS>
AAADceB7sAAAAAAAAAAAAAAAGAAAAWLAAAA8QAAAAAAAAFgB/gAAHgAYAAAADQzhngY/9rLIFECqA7d3dASSjCIv4iAdmCG3bNiOJvrE/fuPvajk3BPY6ee8SAAIAEAAAAQAEAAAgAAACAAgAAAAAAAAAA==

> <PUBCHEM_IUPAC_OPENEYE_NAME>
N-(2-cyclopropyl-1,3-benzoxazol-5-yl)-1-(6-ethoxypyridazin-3-yl)-5-methyl-pyrazole-4-carboxamide

> <PUBCHEM_IUPAC_CAS_NAME>
N-(2-cyclopropyl-1,3-benzoxazol-5-yl)-1-(6-ethoxy-3-pyridazinyl)-5-methyl-4-pyrazolecarboxamide

> <PUBCHEM_IUPAC_NAME>
N-(2-cyclopropyl-1,3-benzoxazol-5-yl)-1-(6-ethoxypyridazin-3-yl)-5-methylpyrazole-4-carboxamide

> <PUBCHEM_IUPAC_SYSTEMATIC_NAME>
N-(2-cyclopropyl-1,3-benzoxazol-5-yl)-1-(6-ethoxypyridazin-3-yl)-5-methyl-pyrazole-4-carboxamide

> <PUBCHEM_IUPAC_TRADITIONAL_NAME>
N-(2-cyclopropyl-1,3-benzoxazol-5-yl)-1-(6-ethoxypyridazin-3-yl)-5-methyl-pyrazole-4-carboxamide

> <PUBCHEM_IUPAC_INCHI>
InChI=1S/C21H20N6O3/c1-3-29-19-9-8-18(25-26-19)27-12(2)15(11-22-27)20(28)23-14-6-7-17-16(10-14)24-21(30-17)13-4-5-13/h6-11,13H,3-5H2,1-2H3,(H,23,28)

> <PUBCHEM_IUPAC_INCHIKEY>
YNIGISXIMNQRRX-UHFFFAOYSA-N

> <PUBCHEM_XLOGP3_AA>
2.5

> <PUBCHEM_EXACT_MASS>
404.159689

> <PUBCHEM_MOLECULAR_FORMULA>
C21H20N6O3

> <PUBCHEM_MOLECULAR_WEIGHT>
404.4219

> <PUBCHEM_OPENEYE_CAN_SMILES>
CCOC1=NN=C(C=C1)N2C(=C(C=N2)C(=O)NC3=CC4=C(C=C3)OC(=N4)C5CC5)C

> <PUBCHEM_OPENEYE_ISO_SMILES>
CCOC1=NN=C(C=C1)N2C(=C(C=N2)C(=O)NC3=CC4=C(C=C3)OC(=N4)C5CC5)C

> <PUBCHEM_CACTVS_TPSA>
108

> <PUBCHEM_MONOISOTOPIC_WEIGHT>
404.159689

> <PUBCHEM_TOTAL_CHARGE>
0

> <PUBCHEM_HEAVY_ATOM_COUNT>
30

> <PUBCHEM_ATOM_DEF_STEREO_COUNT>
0

> <PUBCHEM_ATOM_UDEF_STEREO_COUNT>
0

> <PUBCHEM_BOND_DEF_STEREO_COUNT>
0

> <PUBCHEM_BOND_UDEF_STEREO_COUNT>
0

> <PUBCHEM_ISOTOPIC_ATOM_COUNT>
0

> <PUBCHEM_COMPONENT_COUNT>
1

> <PUBCHEM_CACTVS_TAUTO_COUNT>
2

> <PUBCHEM_COORDINATE_TYPE>
1

> <PUBCHEM_BONDANNOTATIONS>
1  13  8

$$$$
