68742355
  CDK     1213141750

 51 52  0  0  0  0  0  0  0  0999 V2000
    7.7331    1.0000    0.0000 O   0  0  0  0  0  0  0  0  0  0  0  0
    2.5369    0.0000    0.0000 O   0  0  0  0  0  0  0  0  0  0  0  0
    6.0010    0.0000    0.0000 O   0  0  0  0  0  0  0  0  0  0  0  0
    5.1350    1.5000    0.0000 C   0  0  3  0  0  0  0  0  0  0  0  0
    5.1350    2.5000    0.0000 C   0  0  3  0  0  0  0  0  0  0  0  0
    6.0010    3.0000    0.0000 C   0  0  0  0  0  0  0  0  0  0  0  0
    6.0010    1.0000    0.0000 C   0  0  0  0  0  0  0  0  0  0  0  0
    4.2690    1.0000    0.0000 C   0  0  0  0  0  0  0  0  0  0  0  0
    6.8671    2.5000    0.0000 C   0  0  0  0  0  0  0  0  0  0  0  0
    6.8671    1.5000    0.0000 C   0  0  0  0  0  0  0  0  0  0  0  0
    4.2690    3.0000    0.0000 C   0  0  0  0  0  0  0  0  0  0  0  0
    4.2690    0.0000    0.0000 C   0  0  0  0  0  0  0  0  0  0  0  0
    4.2690   -3.0000    0.0000 C   0  0  0  0  0  0  0  0  0  0  0  0
    4.2690    4.0000    0.0000 C   0  0  0  0  0  0  0  0  0  0  0  0
    3.4030   -0.5000    0.0000 C   0  0  0  0  0  0  0  0  0  0  0  0
    5.1350   -0.5000    0.0000 C   0  0  0  0  0  0  0  0  0  0  0  0
    4.2690   -2.0000    0.0000 C   0  0  0  0  0  0  0  0  0  0  0  0
    3.4030    2.5000    0.0000 C   0  0  0  0  0  0  0  0  0  0  0  0
    3.4030   -1.5000    0.0000 C   0  0  0  0  0  0  0  0  0  0  0  0
    5.1350   -1.5000    0.0000 C   0  0  0  0  0  0  0  0  0  0  0  0
    4.2690   -4.0000    0.0000 C   0  0  0  0  0  0  0  0  0  0  0  0
    3.2690   -3.0000    0.0000 C   0  0  0  0  0  0  0  0  0  0  0  0
    5.2690   -3.0000    0.0000 C   0  0  0  0  0  0  0  0  0  0  0  0
    5.1350    0.8800    0.0000 H   0  0  0  0  0  0  0  0  0  0  0  0
    5.1350    3.1200    0.0000 H   0  0  0  0  0  0  0  0  0  0  0  0
    6.3996    3.4750    0.0000 H   0  0  0  0  0  0  0  0  0  0  0  0
    5.6025    3.4750    0.0000 H   0  0  0  0  0  0  0  0  0  0  0  0
    5.6025    0.5251    0.0000 H   0  0  0  0  0  0  0  0  0  0  0  0
    6.3996    0.5251    0.0000 H   0  0  0  0  0  0  0  0  0  0  0  0
    4.0569    1.5826    0.0000 H   0  0  0  0  0  0  0  0  0  0  0  0
    3.6584    0.8923    0.0000 H   0  0  0  0  0  0  0  0  0  0  0  0
    7.4776    2.3923    0.0000 H   0  0  0  0  0  0  0  0  0  0  0  0
    7.0791    3.0826    0.0000 H   0  0  0  0  0  0  0  0  0  0  0  0
    4.8890    4.0000    0.0000 H   0  0  0  0  0  0  0  0  0  0  0  0
    4.2690    4.6200    0.0000 H   0  0  0  0  0  0  0  0  0  0  0  0
    3.6490    4.0000    0.0000 H   0  0  0  0  0  0  0  0  0  0  0  0
    2.8660    2.8100    0.0000 H   0  0  0  0  0  0  0  0  0  0  0  0
    3.4030    1.8800    0.0000 H   0  0  0  0  0  0  0  0  0  0  0  0
    2.8660   -1.8100    0.0000 H   0  0  0  0  0  0  0  0  0  0  0  0
    5.6720   -1.8100    0.0000 H   0  0  0  0  0  0  0  0  0  0  0  0
    3.6490   -4.0000    0.0000 H   0  0  0  0  0  0  0  0  0  0  0  0
    4.2690   -4.6200    0.0000 H   0  0  0  0  0  0  0  0  0  0  0  0
    4.8890   -4.0000    0.0000 H   0  0  0  0  0  0  0  0  0  0  0  0
    3.2690   -2.3800    0.0000 H   0  0  0  0  0  0  0  0  0  0  0  0
    2.6490   -3.0000    0.0000 H   0  0  0  0  0  0  0  0  0  0  0  0
    3.2690   -3.6200    0.0000 H   0  0  0  0  0  0  0  0  0  0  0  0
    5.2690   -3.6200    0.0000 H   0  0  0  0  0  0  0  0  0  0  0  0
    5.8890   -3.0000    0.0000 H   0  0  0  0  0  0  0  0  0  0  0  0
    5.2690   -2.3800    0.0000 H   0  0  0  0  0  0  0  0  0  0  0  0
    2.0000   -0.3100    0.0000 H   0  0  0  0  0  0  0  0  0  0  0  0
    6.5380   -0.3100    0.0000 H   0  0  0  0  0  0  0  0  0  0  0  0
  1 10  2  0  0  0  0 
  2 15  1  0  0  0  0 
  2 50  1  0  0  0  0 
  3 16  1  0  0  0  0 
  3 51  1  0  0  0  0 
  4  5  1  0  0  0  0 
  4  7  1  0  0  0  0 
  4  8  1  0  0  0  0 
  4 24  1  0  0  0  0 
  5  6  1  0  0  0  0 
  5 11  1  0  0  0  0 
  5 25  1  0  0  0  0 
  6  9  1  0  0  0  0 
  6 26  1  0  0  0  0 
  6 27  1  0  0  0  0 
  7 10  1  0  0  0  0 
  7 28  1  0  0  0  0 
  7 29  1  0  0  0  0 
  8 12  1  0  0  0  0 
  8 30  1  0  0  0  0 
  8 31  1  0  0  0  0 
  9 10  1  0  0  0  0 
  9 32  1  0  0  0  0 
  9 33  1  0  0  0  0 
 11 14  1  0  0  0  0 
 11 18  2  0  0  0  0 
 12 15  2  0  0  0  0 
 12 16  1  0  0  0  0 
 13 17  1  0  0  0  0 
 13 21  1  0  0  0  0 
 13 22  1  0  0  0  0 
 13 23  1  0  0  0  0 
 14 34  1  0  0  0  0 
 14 35  1  0  0  0  0 
 14 36  1  0  0  0  0 
 15 19  1  0  0  0  0 
 16 20  2  0  0  0  0 
 17 19  2  0  0  0  0 
 17 20  1  0  0  0  0 
 18 37  1  0  0  0  0 
 18 38  1  0  0  0  0 
 19 39  1  0  0  0  0 
 20 40  1  0  0  0  0 
 21 41  1  0  0  0  0 
 21 42  1  0  0  0  0 
 21 43  1  0  0  0  0 
 22 44  1  0  0  0  0 
 22 45  1  0  0  0  0 
 22 46  1  0  0  0  0 
 23 47  1  0  0  0  0 
 23 48  1  0  0  0  0 
 23 49  1  0  0  0  0 
M  END
> <cdk:Title>
68742355

> <cdk:Remark>
null

> <PUBCHEM_COMPOUND_CID>
68742355

> <PUBCHEM_COMPOUND_CANONICALIZED>
1

> <PUBCHEM_CACTVS_COMPLEXITY>
436

> <PUBCHEM_CACTVS_HBOND_ACCEPTOR>
3

> <PUBCHEM_CACTVS_HBOND_DONOR>
2

> <PUBCHEM_CACTVS_ROTATABLE_BOND>
4

> <PUBCHEM_CACTVS_SUBSKEYS>
AAADceB4MAAAAAAAAAAAAAAAAAAAAAAAAAAwYAAAAAAAAAABAAAAGgAACAAADwSAmAAyBoAAAgCIAqBSAAACAAAgIAAAiAEGCIgIJzKCERKAcAAlwBUImAeI6PSPwAABCAAIAACAAAIQADAAAAAAAAAAAA==

> <PUBCHEM_IUPAC_OPENEYE_NAME>
3-[(4-tert-butyl-2,6-dihydroxy-phenyl)methyl]-4-isopropenyl-cyclohexanone

> <PUBCHEM_IUPAC_CAS_NAME>
3-[(4-tert-butyl-2,6-dihydroxyphenyl)methyl]-4-(1-methylethenyl)-1-cyclohexanone

> <PUBCHEM_IUPAC_NAME>
3-[(4-tert-butyl-2,6-dihydroxyphenyl)methyl]-4-prop-1-en-2-ylcyclohexan-1-one

> <PUBCHEM_IUPAC_SYSTEMATIC_NAME>
3-[[4-tert-butyl-2,6-bis(oxidanyl)phenyl]methyl]-4-prop-1-en-2-yl-cyclohexan-1-one

> <PUBCHEM_IUPAC_TRADITIONAL_NAME>
3-(4-tert-butyl-2,6-dihydroxy-benzyl)-4-isopropenyl-cyclohexanone

> <PUBCHEM_IUPAC_INCHI>
InChI=1S/C20H28O3/c1-12(2)16-7-6-15(21)8-13(16)9-17-18(22)10-14(11-19(17)23)20(3,4)5/h10-11,13,16,22-23H,1,6-9H2,2-5H3

> <PUBCHEM_IUPAC_INCHIKEY>
RAJWZMPKAJKZQO-UHFFFAOYSA-N

> <PUBCHEM_XLOGP3_AA>
4.7

> <PUBCHEM_EXACT_MASS>
316.203845

> <PUBCHEM_MOLECULAR_FORMULA>
C20H28O3

> <PUBCHEM_MOLECULAR_WEIGHT>
316.43452

> <PUBCHEM_OPENEYE_CAN_SMILES>
CC(=C)C1CCC(=O)CC1CC2=C(C=C(C=C2O)C(C)(C)C)O

> <PUBCHEM_OPENEYE_ISO_SMILES>
CC(=C)C1CCC(=O)CC1CC2=C(C=C(C=C2O)C(C)(C)C)O

> <PUBCHEM_CACTVS_TPSA>
57.5

> <PUBCHEM_MONOISOTOPIC_WEIGHT>
316.203845

> <PUBCHEM_TOTAL_CHARGE>
0

> <PUBCHEM_HEAVY_ATOM_COUNT>
23

> <PUBCHEM_ATOM_DEF_STEREO_COUNT>
0

> <PUBCHEM_ATOM_UDEF_STEREO_COUNT>
2

> <PUBCHEM_BOND_DEF_STEREO_COUNT>
0

> <PUBCHEM_BOND_UDEF_STEREO_COUNT>
0

> <PUBCHEM_ISOTOPIC_ATOM_COUNT>
0

> <PUBCHEM_COMPONENT_COUNT>
1

> <PUBCHEM_CACTVS_TAUTO_COUNT>
15

> <PUBCHEM_COORDINATE_TYPE>
1

> <PUBCHEM_BONDANNOTATIONS>
12  15  8

$$$$
