48826350
  CDK     0104150955

 50 53  0  0  0  0  0  0  0  0999 V2000
   10.5109   -1.8988    0.0000 Cl  0  0  0  0  0  0  0  0  0  0  0  0
    2.4612    0.4861    0.0000 O   0  0  0  0  0  0  0  0  0  0  0  0
   12.2708    1.1359    0.0000 O   0  0  0  0  0  0  0  0  0  0  0  0
   12.2708   -0.9334    0.0000 O   0  0  0  0  0  0  0  0  0  0  0  0
    3.5827   -0.8988    0.0000 N   0  0  0  0  0  0  0  0  0  0  0  0
    7.9128    0.6012    0.0000 N   0  0  0  0  0  0  0  0  0  0  0  0
    3.4782   -1.8933    0.0000 C   0  0  0  0  0  0  0  0  0  0  0  0
    2.5000   -2.1012    0.0000 C   0  0  0  0  0  0  0  0  0  0  0  0
    2.0000   -1.2352    0.0000 C   0  0  0  0  0  0  0  0  0  0  0  0
    2.6691   -0.4920    0.0000 C   0  0  0  0  0  0  0  0  0  0  0  0
    4.4487   -0.3988    0.0000 C   0  0  0  0  0  0  0  0  0  0  0  0
    7.0468    1.1012    0.0000 C   0  0  3  0  0  0  0  0  0  0  0  0
    6.1808    0.6012    0.0000 C   0  0  0  0  0  0  0  0  0  0  0  0
    5.3147   -0.8988    0.0000 C   0  0  0  0  0  0  0  0  0  0  0  0
    4.4487    0.6012    0.0000 C   0  0  0  0  0  0  0  0  0  0  0  0
    8.7788    1.1012    0.0000 C   0  0  0  0  0  0  0  0  0  0  0  0
    6.1808   -0.3988    0.0000 C   0  0  0  0  0  0  0  0  0  0  0  0
    5.3147    1.1012    0.0000 C   0  0  0  0  0  0  0  0  0  0  0  0
    7.0468    2.1012    0.0000 C   0  0  0  0  0  0  0  0  0  0  0  0
    9.6448    0.6012    0.0000 C   0  0  0  0  0  0  0  0  0  0  0  0
   10.5109    1.1012    0.0000 C   0  0  0  0  0  0  0  0  0  0  0  0
   11.3769    0.6012    0.0000 C   0  0  0  0  0  0  0  0  0  0  0  0
    9.6448   -0.3988    0.0000 C   0  0  0  0  0  0  0  0  0  0  0  0
   11.3769   -0.3988    0.0000 C   0  0  0  0  0  0  0  0  0  0  0  0
   10.5109   -0.8988    0.0000 C   0  0  0  0  0  0  0  0  0  0  0  0
   13.1769    0.6220    0.0000 C   0  0  0  0  0  0  0  0  0  0  0  0
   13.1769   -0.4196    0.0000 C   0  0  0  0  0  0  0  0  0  0  0  0
    3.5430   -2.5099    0.0000 H   0  0  0  0  0  0  0  0  0  0  0  0
    4.0982   -1.8933    0.0000 H   0  0  0  0  0  0  0  0  0  0  0  0
    1.9336   -2.3534    0.0000 H   0  0  0  0  0  0  0  0  0  0  0  0
    2.6916   -2.6909    0.0000 H   0  0  0  0  0  0  0  0  0  0  0  0
    1.5851   -0.7744    0.0000 H   0  0  0  0  0  0  0  0  0  0  0  0
    1.4984   -1.5996    0.0000 H   0  0  0  0  0  0  0  0  0  0  0  0
    7.0468    0.2512    0.0000 H   0  0  0  0  0  0  0  0  0  0  0  0
    7.9128   -0.0188    0.0000 H   0  0  0  0  0  0  0  0  0  0  0  0
    5.3147   -1.5188    0.0000 H   0  0  0  0  0  0  0  0  0  0  0  0
    3.9118    0.9112    0.0000 H   0  0  0  0  0  0  0  0  0  0  0  0
    9.1774    1.5762    0.0000 H   0  0  0  0  0  0  0  0  0  0  0  0
    8.3803    1.5762    0.0000 H   0  0  0  0  0  0  0  0  0  0  0  0
    6.7177   -0.7088    0.0000 H   0  0  0  0  0  0  0  0  0  0  0  0
    5.3147    1.7212    0.0000 H   0  0  0  0  0  0  0  0  0  0  0  0
    7.6668    2.1012    0.0000 H   0  0  0  0  0  0  0  0  0  0  0  0
    7.0468    2.7212    0.0000 H   0  0  0  0  0  0  0  0  0  0  0  0
    6.4268    2.1012    0.0000 H   0  0  0  0  0  0  0  0  0  0  0  0
   10.5109    1.7212    0.0000 H   0  0  0  0  0  0  0  0  0  0  0  0
    9.1079   -0.7088    0.0000 H   0  0  0  0  0  0  0  0  0  0  0  0
   13.7878    0.5159    0.0000 H   0  0  0  0  0  0  0  0  0  0  0  0
   13.3860    1.2057    0.0000 H   0  0  0  0  0  0  0  0  0  0  0  0
   13.3860   -1.0033    0.0000 H   0  0  0  0  0  0  0  0  0  0  0  0
   13.7878   -0.3135    0.0000 H   0  0  0  0  0  0  0  0  0  0  0  0
  1 25  1  0  0  0  0 
  2 10  2  0  0  0  0 
  3 22  1  0  0  0  0 
  3 26  1  0  0  0  0 
  4 24  1  0  0  0  0 
  4 27  1  0  0  0  0 
  5  7  1  0  0  0  0 
  5 10  1  0  0  0  0 
  5 11  1  0  0  0  0 
  6 12  1  0  0  0  0 
  6 16  1  0  0  0  0 
  6 35  1  0  0  0  0 
  7  8  1  0  0  0  0 
  7 28  1  0  0  0  0 
  7 29  1  0  0  0  0 
  8  9  1  0  0  0  0 
  8 30  1  0  0  0  0 
  8 31  1  0  0  0  0 
  9 10  1  0  0  0  0 
  9 32  1  0  0  0  0 
  9 33  1  0  0  0  0 
 11 14  2  0  0  0  0 
 11 15  1  0  0  0  0 
 12 13  1  0  0  0  0 
 12 19  1  0  0  0  0 
 12 34  1  0  0  0  0 
 13 17  2  0  0  0  0 
 13 18  1  0  0  0  0 
 14 17  1  0  0  0  0 
 14 36  1  0  0  0  0 
 15 18  2  0  0  0  0 
 15 37  1  0  0  0  0 
 16 20  1  0  0  0  0 
 16 38  1  0  0  0  0 
 16 39  1  0  0  0  0 
 17 40  1  0  0  0  0 
 18 41  1  0  0  0  0 
 19 42  1  0  0  0  0 
 19 43  1  0  0  0  0 
 19 44  1  0  0  0  0 
 20 21  2  0  0  0  0 
 20 23  1  0  0  0  0 
 21 22  1  0  0  0  0 
 21 45  1  0  0  0  0 
 22 24  2  0  0  0  0 
 23 25  2  0  0  0  0 
 23 46  1  0  0  0  0 
 24 25  1  0  0  0  0 
 26 27  1  0  0  0  0 
 26 47  1  0  0  0  0 
 26 48  1  0  0  0  0 
 27 49  1  0  0  0  0 
 27 50  1  0  0  0  0 
M  END
> <cdk:Title>
48826350

> <cdk:Remark>
null

> <PUBCHEM_COMPOUND_CID>
48826350

> <PUBCHEM_COMPOUND_CANONICALIZED>
1

> <PUBCHEM_CACTVS_COMPLEXITY>
512

> <PUBCHEM_CACTVS_HBOND_ACCEPTOR>
4

> <PUBCHEM_CACTVS_HBOND_DONOR>
1

> <PUBCHEM_CACTVS_ROTATABLE_BOND>
5

> <PUBCHEM_CACTVS_SUBSKEYS>
AAADceB7MAAEAAAAAAAAAAAAAAAAAWAAAAA0YIAAAAAAAACRQAAAHgIQAAAADC7hmCYyxoPABACIAiVSUACCCAAhJ0AIiIEO74gNJjPFs5uGOCrk1hHK6Ae00JIOKAABIQAASABQAAJCAACQAAAAAAAAAA==

> <PUBCHEM_IUPAC_OPENEYE_NAME>
1-[4-[1-[(5-chloro-2,3-dihydro-1,4-benzodioxin-7-yl)methylamino]ethyl]phenyl]pyrrolidin-2-one

> <PUBCHEM_IUPAC_CAS_NAME>
1-[4-[1-[(5-chloro-2,3-dihydro-1,4-benzodioxin-7-yl)methylamino]ethyl]phenyl]-2-pyrrolidinone

> <PUBCHEM_IUPAC_NAME>
1-[4-[1-[(5-chloro-2,3-dihydro-1,4-benzodioxin-7-yl)methylamino]ethyl]phenyl]pyrrolidin-2-one

> <PUBCHEM_IUPAC_SYSTEMATIC_NAME>
1-[4-[1-[(5-chloranyl-2,3-dihydro-1,4-benzodioxin-7-yl)methylamino]ethyl]phenyl]pyrrolidin-2-one

> <PUBCHEM_IUPAC_TRADITIONAL_NAME>
1-[4-[1-[(5-chloro-2,3-dihydro-1,4-benzodioxin-7-yl)methylamino]ethyl]phenyl]-2-pyrrolidone

> <PUBCHEM_IUPAC_INCHI>
InChI=1S/C21H23ClN2O3/c1-14(16-4-6-17(7-5-16)24-8-2-3-20(24)25)23-13-15-11-18(22)21-19(12-15)26-9-10-27-21/h4-7,11-12,14,23H,2-3,8-10,13H2,1H3

> <PUBCHEM_IUPAC_INCHIKEY>
IZLCNKCGJNPIAC-UHFFFAOYSA-N

> <PUBCHEM_XLOGP3_AA>
3

> <PUBCHEM_EXACT_MASS>
386.13972

> <PUBCHEM_MOLECULAR_FORMULA>
C21H23ClN2O3

> <PUBCHEM_MOLECULAR_WEIGHT>
386.87192

> <PUBCHEM_OPENEYE_CAN_SMILES>
CC(C1=CC=C(C=C1)N2CCCC2=O)NCC3=CC4=C(C(=C3)Cl)OCCO4

> <PUBCHEM_OPENEYE_ISO_SMILES>
CC(C1=CC=C(C=C1)N2CCCC2=O)NCC3=CC4=C(C(=C3)Cl)OCCO4

> <PUBCHEM_CACTVS_TPSA>
50.8

> <PUBCHEM_MONOISOTOPIC_WEIGHT>
386.13972

> <PUBCHEM_TOTAL_CHARGE>
0

> <PUBCHEM_HEAVY_ATOM_COUNT>
27

> <PUBCHEM_ATOM_DEF_STEREO_COUNT>
0

> <PUBCHEM_ATOM_UDEF_STEREO_COUNT>
1

> <PUBCHEM_BOND_DEF_STEREO_COUNT>
0

> <PUBCHEM_BOND_UDEF_STEREO_COUNT>
0

> <PUBCHEM_ISOTOPIC_ATOM_COUNT>
0

> <PUBCHEM_COMPONENT_COUNT>
1

> <PUBCHEM_CACTVS_TAUTO_COUNT>
2

> <PUBCHEM_COORDINATE_TYPE>
1

> <PUBCHEM_BONDANNOTATIONS>
11  14  8

$$$$
7293924
  CDK     0104150955

 53 56  0  0  0  0  0  0  0  0999 V2000
    4.2320    3.1651    0.0000 Cl  0  0  0  0  0  0  0  0  0  0  0  0
    5.8198   -1.1081    0.0000 S   0  0  0  0  0  0  0  0  0  0  0  0
    5.5108    1.4610    0.0000 O   0  0  0  0  0  0  0  0  0  0  0  0
    3.7320   -1.1651    0.0000 N   0  0  0  0  0  0  0  0  0  0  0  0
    6.7709    0.2010    0.0000 N   0  0  0  0  0  0  0  0  0  0  0  0
    7.7171    0.5057    0.0000 N   0  0  0  0  0  0  0  0  0  0  0  0
    7.7171   -1.1038    0.0000 N   0  0  0  0  0  0  0  0  0  0  0  0
    4.5981   -1.6651    0.0000 C   0  0  0  0  0  0  0  0  0  0  0  0
    2.8660   -1.6651    0.0000 C   0  0  0  0  0  0  0  0  0  0  0  0
    4.5981   -2.6651    0.0000 C   0  0  2  0  0  0  0  0  0  0  0  0
    2.8660   -2.6651    0.0000 C   0  0  2  0  0  0  0  0  0  0  0  0
    3.7320   -3.1651    0.0000 C   0  0  0  0  0  0  0  0  0  0  0  0
    4.2320   -0.2990    0.0000 C   0  0  2  0  0  0  0  0  0  0  0  0
    5.4641   -3.1651    0.0000 C   0  0  0  0  0  0  0  0  0  0  0  0
    2.0000   -3.1651    0.0000 C   0  0  0  0  0  0  0  0  0  0  0  0
    5.2320   -0.2990    0.0000 C   0  0  0  0  0  0  0  0  0  0  0  0
    3.7320    0.5670    0.0000 C   0  0  0  0  0  0  0  0  0  0  0  0
    5.8198    0.5100    0.0000 C   0  0  0  0  0  0  0  0  0  0  0  0
    4.2320    1.4330    0.0000 C   0  0  0  0  0  0  0  0  0  0  0  0
    2.7320    0.5670    0.0000 C   0  0  0  0  0  0  0  0  0  0  0  0
    6.7709   -0.7990    0.0000 C   0  0  0  0  0  0  0  0  0  0  0  0
    3.7320    2.2990    0.0000 C   0  0  0  0  0  0  0  0  0  0  0  0
    2.2320    1.4330    0.0000 C   0  0  0  0  0  0  0  0  0  0  0  0
    2.7320    2.2990    0.0000 C   0  0  0  0  0  0  0  0  0  0  0  0
    8.3007   -0.2990    0.0000 C   0  0  0  0  0  0  0  0  0  0  0  0
    9.3007   -0.2990    0.0000 C   0  0  0  0  0  0  0  0  0  0  0  0
    9.8007   -1.1651    0.0000 C   0  0  0  0  0  0  0  0  0  0  0  0
    3.2320   -0.2990    0.0000 H   0  0  0  0  0  0  0  0  0  0  0  0
    5.2087   -1.7727    0.0000 H   0  0  0  0  0  0  0  0  0  0  0  0
    4.8101   -1.0824    0.0000 H   0  0  0  0  0  0  0  0  0  0  0  0
    2.6540   -1.0824    0.0000 H   0  0  0  0  0  0  0  0  0  0  0  0
    2.2554   -1.7727    0.0000 H   0  0  0  0  0  0  0  0  0  0  0  0
    4.5981   -3.2851    0.0000 H   0  0  0  0  0  0  0  0  0  0  0  0
    2.8660   -3.2851    0.0000 H   0  0  0  0  0  0  0  0  0  0  0  0
    3.3335   -3.6400    0.0000 H   0  0  0  0  0  0  0  0  0  0  0  0
    4.1306   -3.6400    0.0000 H   0  0  0  0  0  0  0  0  0  0  0  0
    4.5420   -0.8360    0.0000 H   0  0  0  0  0  0  0  0  0  0  0  0
    5.1541   -3.7020    0.0000 H   0  0  0  0  0  0  0  0  0  0  0  0
    6.0010   -3.4751    0.0000 H   0  0  0  0  0  0  0  0  0  0  0  0
    5.7741   -2.6281    0.0000 H   0  0  0  0  0  0  0  0  0  0  0  0
    1.6900   -2.6281    0.0000 H   0  0  0  0  0  0  0  0  0  0  0  0
    1.4631   -3.4751    0.0000 H   0  0  0  0  0  0  0  0  0  0  0  0
    2.3100   -3.7020    0.0000 H   0  0  0  0  0  0  0  0  0  0  0  0
    4.8520    1.4330    0.0000 H   0  0  0  0  0  0  0  0  0  0  0  0
    2.4220    0.0301    0.0000 H   0  0  0  0  0  0  0  0  0  0  0  0
    1.6120    1.4330    0.0000 H   0  0  0  0  0  0  0  0  0  0  0  0
    2.4220    2.8360    0.0000 H   0  0  0  0  0  0  0  0  0  0  0  0
    5.9257    1.9218    0.0000 H   0  0  0  0  0  0  0  0  0  0  0  0
    9.8833   -0.0870    0.0000 H   0  0  0  0  0  0  0  0  0  0  0  0
    9.1931    0.3115    0.0000 H   0  0  0  0  0  0  0  0  0  0  0  0
    9.2638   -1.4751    0.0000 H   0  0  0  0  0  0  0  0  0  0  0  0
   10.1107   -1.7020    0.0000 H   0  0  0  0  0  0  0  0  0  0  0  0
   10.3377   -0.8551    0.0000 H   0  0  0  0  0  0  0  0  0  0  0  0
  1 22  1  0  0  0  0 
  2 16  1  0  0  0  0 
  2 21  1  0  0  0  0 
  3 18  1  0  0  0  0 
  3 48  1  0  0  0  0 
  4  8  1  0  0  0  0 
  4  9  1  0  0  0  0 
 13  4  1  1  0  0  0 
  4 28  1  0  0  0  0 
  5  6  1  0  0  0  0 
  5 18  1  0  0  0  0 
  5 21  1  0  0  0  0 
  6 25  2  0  0  0  0 
  7 21  2  0  0  0  0 
  7 25  1  0  0  0  0 
  8 10  1  0  0  0  0 
  8 29  1  0  0  0  0 
  8 30  1  0  0  0  0 
  9 11  1  0  0  0  0 
  9 31  1  0  0  0  0 
  9 32  1  0  0  0  0 
 10 12  1  0  0  0  0 
 10 14  1  1  0  0  0 
 10 33  1  0  0  0  0 
 11 12  1  0  0  0  0 
 11 15  1  6  0  0  0 
 11 34  1  0  0  0  0 
 12 35  1  0  0  0  0 
 12 36  1  0  0  0  0 
 13 16  1  0  0  0  0 
 13 17  1  0  0  0  0 
 13 37  1  0  0  0  0 
 14 38  1  0  0  0  0 
 14 39  1  0  0  0  0 
 14 40  1  0  0  0  0 
 15 41  1  0  0  0  0 
 15 42  1  0  0  0  0 
 15 43  1  0  0  0  0 
 16 18  2  0  0  0  0 
 17 19  2  0  0  0  0 
 17 20  1  0  0  0  0 
 19 22  1  0  0  0  0 
 19 44  1  0  0  0  0 
 20 23  2  0  0  0  0 
 20 45  1  0  0  0  0 
 22 24  2  0  0  0  0 
 23 24  1  0  0  0  0 
 23 46  1  0  0  0  0 
 24 47  1  0  0  0  0 
 25 26  1  0  0  0  0 
 26 27  1  0  0  0  0 
 26 49  1  0  0  0  0 
 26 50  1  0  0  0  0 
 27 51  1  0  0  0  0 
 27 52  1  0  0  0  0 
 27 53  1  0  0  0  0 
M  CHG  1   4   1
M  END
> <cdk:Title>
7293924

> <cdk:Remark>
null

> <PUBCHEM_COMPOUND_CID>
7293924

> <PUBCHEM_COMPOUND_CANONICALIZED>
1

> <PUBCHEM_CACTVS_COMPLEXITY>
504

> <PUBCHEM_CACTVS_HBOND_ACCEPTOR>
4

> <PUBCHEM_CACTVS_HBOND_DONOR>
2

> <PUBCHEM_CACTVS_ROTATABLE_BOND>
4

> <PUBCHEM_CACTVS_SUBSKEYS>
AAADceB7oABEAAAAAAAAAAAAAAAAAWLAAAA8QAAAAAAWAAAB8AAAHgYYCAAADSrB2yQzlZfIEgimAiJiZACS9KthLbgdmIY8RoyIKCLj2xOE4AhumALIyCeQwKAOAAAAIAAAAAAAAABAAAAAAAAAAAAAAA==

> <PUBCHEM_IUPAC_OPENEYE_NAME>
5-[(S)-(3-chlorophenyl)-[(3S,5S)-3,5-dimethylpiperidin-1-ium-1-yl]methyl]-2-ethyl-thiazolo[3,2-b][1,2,4]triazol-6-ol

> <PUBCHEM_IUPAC_CAS_NAME>
5-[(S)-(3-chlorophenyl)-[(3S,5S)-3,5-dimethyl-1-piperidin-1-iumyl]methyl]-2-ethyl-6-thiazolo[3,2-b][1,2,4]triazolol

> <PUBCHEM_IUPAC_NAME>
5-[(S)-(3-chlorophenyl)-[(3S,5S)-3,5-dimethylpiperidin-1-ium-1-yl]methyl]-2-ethyl-[1,3]thiazolo[3,2-b][1,2,4]triazol-6-ol

> <PUBCHEM_IUPAC_SYSTEMATIC_NAME>
5-[(S)-(3-chlorophenyl)-[(3S,5S)-3,5-dimethylpiperidin-1-ium-1-yl]methyl]-2-ethyl-[1,3]thiazolo[3,2-b][1,2,4]triazol-6-ol

> <PUBCHEM_IUPAC_TRADITIONAL_NAME>
5-[(S)-(3-chlorophenyl)-[(3S,5S)-3,5-dimethylpiperidin-1-ium-1-yl]methyl]-2-ethyl-thiazolo[3,2-b][1,2,4]triazol-6-ol

> <PUBCHEM_IUPAC_INCHI>
InChI=1S/C20H25ClN4OS/c1-4-16-22-20-25(23-16)19(26)18(27-20)17(14-6-5-7-15(21)9-14)24-10-12(2)8-13(3)11-24/h5-7,9,12-13,17,26H,4,8,10-11H2,1-3H3/p+1/t12-,13-,17-/m0/s1

> <PUBCHEM_IUPAC_INCHIKEY>
KNQFVMFTIGUJOB-DCGLDWPTSA-O

> <PUBCHEM_XLOGP3_AA>
5.6

> <PUBCHEM_EXACT_MASS>
405.151585

> <PUBCHEM_MOLECULAR_FORMULA>
C20H26ClN4OS+

> <PUBCHEM_MOLECULAR_WEIGHT>
405.96464

> <PUBCHEM_OPENEYE_CAN_SMILES>
CCC1=NN2C(=C(SC2=N1)C(C3=CC(=CC=C3)Cl)[NH+]4CC(CC(C4)C)C)O

> <PUBCHEM_OPENEYE_ISO_SMILES>
CCC1=NN2C(=C(SC2=N1)[C@H](C3=CC(=CC=C3)Cl)[NH+]4C[C@H](C[C@@H](C4)C)C)O

> <PUBCHEM_CACTVS_TPSA>
83.1

> <PUBCHEM_MONOISOTOPIC_WEIGHT>
405.151585

> <PUBCHEM_TOTAL_CHARGE>
1

> <PUBCHEM_HEAVY_ATOM_COUNT>
27

> <PUBCHEM_ATOM_DEF_STEREO_COUNT>
3

> <PUBCHEM_ATOM_UDEF_STEREO_COUNT>
0

> <PUBCHEM_BOND_DEF_STEREO_COUNT>
0

> <PUBCHEM_BOND_UDEF_STEREO_COUNT>
0

> <PUBCHEM_ISOTOPIC_ATOM_COUNT>
0

> <PUBCHEM_COMPONENT_COUNT>
1

> <PUBCHEM_CACTVS_TAUTO_COUNT>
2

> <PUBCHEM_COORDINATE_TYPE>
1

> <PUBCHEM_BONDANNOTATIONS>
10  14  5

$$$$
38487696
  CDK     0104150955

 47 50  0  0  0  0  0  0  0  0999 V2000
   10.1588    3.8512    0.0000 Cl  0  0  0  0  0  0  0  0  0  0  0  0
    9.2928   -2.6488    0.0000 O   0  0  0  0  0  0  0  0  0  0  0  0
    7.4562   -3.6433    0.0000 O   0  0  0  0  0  0  0  0  0  0  0  0
    8.4268    0.8512    0.0000 N   0  0  0  0  0  0  0  0  0  0  0  0
    8.4268   -1.1488    0.0000 N   0  0  0  0  0  0  0  0  0  0  0  0
    6.4781   -3.8512    0.0000 N   0  0  0  0  0  0  0  0  0  0  0  0
    7.5608    0.3512    0.0000 C   0  0  0  0  0  0  0  0  0  0  0  0
    9.2928    0.3512    0.0000 C   0  0  0  0  0  0  0  0  0  0  0  0
    7.5608   -0.6488    0.0000 C   0  0  0  0  0  0  0  0  0  0  0  0
    9.2928   -0.6488    0.0000 C   0  0  0  0  0  0  0  0  0  0  0  0
    8.4268    1.8512    0.0000 C   0  0  0  0  0  0  0  0  0  0  0  0
    8.4268   -2.1488    0.0000 C   0  0  0  0  0  0  0  0  0  0  0  0
    9.2928    2.3512    0.0000 C   0  0  0  0  0  0  0  0  0  0  0  0
    7.5608    2.3512    0.0000 C   0  0  0  0  0  0  0  0  0  0  0  0
    7.5608   -2.6488    0.0000 C   0  0  0  0  0  0  0  0  0  0  0  0
    6.6472   -2.2421    0.0000 C   0  0  0  0  0  0  0  0  0  0  0  0
    9.2928    3.3512    0.0000 C   0  0  0  0  0  0  0  0  0  0  0  0
    7.5608    3.3512    0.0000 C   0  0  0  0  0  0  0  0  0  0  0  0
    5.9781   -2.9852    0.0000 C   0  0  0  0  0  0  0  0  0  0  0  0
    8.4268    3.8512    0.0000 C   0  0  0  0  0  0  0  0  0  0  0  0
    4.9836   -2.8807    0.0000 C   0  0  0  0  0  0  0  0  0  0  0  0
    4.5768   -1.9671    0.0000 C   0  0  0  0  0  0  0  0  0  0  0  0
    4.3958   -3.6897    0.0000 C   0  0  0  0  0  0  0  0  0  0  0  0
    2.9945   -2.6716    0.0000 C   0  0  0  0  0  0  0  0  0  0  0  0
    3.5823   -1.8626    0.0000 C   0  0  0  0  0  0  0  0  0  0  0  0
    3.4013   -3.5852    0.0000 C   0  0  0  0  0  0  0  0  0  0  0  0
    2.0000   -2.5671    0.0000 C   0  0  0  0  0  0  0  0  0  0  0  0
    7.3487    0.9338    0.0000 H   0  0  0  0  0  0  0  0  0  0  0  0
    6.9502    0.2436    0.0000 H   0  0  0  0  0  0  0  0  0  0  0  0
    9.9034    0.2436    0.0000 H   0  0  0  0  0  0  0  0  0  0  0  0
    9.5049    0.9338    0.0000 H   0  0  0  0  0  0  0  0  0  0  0  0
    6.9502   -0.5411    0.0000 H   0  0  0  0  0  0  0  0  0  0  0  0
    7.3487   -1.2314    0.0000 H   0  0  0  0  0  0  0  0  0  0  0  0
    9.5049   -1.2314    0.0000 H   0  0  0  0  0  0  0  0  0  0  0  0
    9.9034   -0.5411    0.0000 H   0  0  0  0  0  0  0  0  0  0  0  0
    9.8298    2.0412    0.0000 H   0  0  0  0  0  0  0  0  0  0  0  0
    7.0238    2.0412    0.0000 H   0  0  0  0  0  0  0  0  0  0  0  0
    6.5183   -1.6356    0.0000 H   0  0  0  0  0  0  0  0  0  0  0  0
    7.0238    3.6612    0.0000 H   0  0  0  0  0  0  0  0  0  0  0  0
    8.4268    4.4712    0.0000 H   0  0  0  0  0  0  0  0  0  0  0  0
    4.9413   -1.4655    0.0000 H   0  0  0  0  0  0  0  0  0  0  0  0
    4.6480   -4.2561    0.0000 H   0  0  0  0  0  0  0  0  0  0  0  0
    3.3301   -1.2962    0.0000 H   0  0  0  0  0  0  0  0  0  0  0  0
    3.0368   -4.0867    0.0000 H   0  0  0  0  0  0  0  0  0  0  0  0
    2.0648   -1.9505    0.0000 H   0  0  0  0  0  0  0  0  0  0  0  0
    1.3834   -2.5023    0.0000 H   0  0  0  0  0  0  0  0  0  0  0  0
    1.9352   -3.1837    0.0000 H   0  0  0  0  0  0  0  0  0  0  0  0
  1 17  1  0  0  0  0 
  2 12  2  0  0  0  0 
  3  6  1  0  0  0  0 
  3 15  1  0  0  0  0 
  4  7  1  0  0  0  0 
  4  8  1  0  0  0  0 
  4 11  1  0  0  0  0 
  5  9  1  0  0  0  0 
  5 10  1  0  0  0  0 
  5 12  1  0  0  0  0 
  6 19  2  0  0  0  0 
  7  9  1  0  0  0  0 
  7 28  1  0  0  0  0 
  7 29  1  0  0  0  0 
  8 10  1  0  0  0  0 
  8 30  1  0  0  0  0 
  8 31  1  0  0  0  0 
  9 32  1  0  0  0  0 
  9 33  1  0  0  0  0 
 10 34  1  0  0  0  0 
 10 35  1  0  0  0  0 
 11 13  2  0  0  0  0 
 11 14  1  0  0  0  0 
 12 15  1  0  0  0  0 
 13 17  1  0  0  0  0 
 13 36  1  0  0  0  0 
 14 18  2  0  0  0  0 
 14 37  1  0  0  0  0 
 15 16  2  0  0  0  0 
 16 19  1  0  0  0  0 
 16 38  1  0  0  0  0 
 17 20  2  0  0  0  0 
 18 20  1  0  0  0  0 
 18 39  1  0  0  0  0 
 19 21  1  0  0  0  0 
 20 40  1  0  0  0  0 
 21 22  2  0  0  0  0 
 21 23  1  0  0  0  0 
 22 25  1  0  0  0  0 
 22 41  1  0  0  0  0 
 23 26  2  0  0  0  0 
 23 42  1  0  0  0  0 
 24 25  2  0  0  0  0 
 24 26  1  0  0  0  0 
 24 27  1  0  0  0  0 
 25 43  1  0  0  0  0 
 26 44  1  0  0  0  0 
 27 45  1  0  0  0  0 
 27 46  1  0  0  0  0 
 27 47  1  0  0  0  0 
M  END
> <cdk:Title>
38487696

> <cdk:Remark>
null

> <PUBCHEM_COMPOUND_CID>
38487696

> <PUBCHEM_COMPOUND_CANONICALIZED>
1

> <PUBCHEM_CACTVS_COMPLEXITY>
504

> <PUBCHEM_CACTVS_HBOND_ACCEPTOR>
4

> <PUBCHEM_CACTVS_HBOND_DONOR>
0

> <PUBCHEM_CACTVS_ROTATABLE_BOND>
3

> <PUBCHEM_CACTVS_SUBSKEYS>
AAADceB7MAAEAAAAAAAAAAAAAAAAAWAAAAA8YIAAAAAAAAAB0AAAHgIEAAAADA7BniQyxJMQAACpA6VyUgKCAAAlJwAomCH+btoKZrrBl7OUMYhmhhjYycecyOCOQAAAAAIAAACAAAAABAAAAAAAAAAAAA==

> <PUBCHEM_IUPAC_OPENEYE_NAME>
[4-(3-chlorophenyl)piperazin-1-yl]-[3-(p-tolyl)isoxazol-5-yl]methanone

> <PUBCHEM_IUPAC_CAS_NAME>
[4-(3-chlorophenyl)-1-piperazinyl]-[3-(4-methylphenyl)-5-isoxazolyl]methanone

> <PUBCHEM_IUPAC_NAME>
[4-(3-chlorophenyl)piperazin-1-yl]-[3-(4-methylphenyl)-1,2-oxazol-5-yl]methanone

> <PUBCHEM_IUPAC_SYSTEMATIC_NAME>
[4-(3-chlorophenyl)piperazin-1-yl]-[3-(4-methylphenyl)-1,2-oxazol-5-yl]methanone

> <PUBCHEM_IUPAC_TRADITIONAL_NAME>
[4-(3-chlorophenyl)piperazino]-[3-(p-tolyl)isoxazol-5-yl]methanone

> <PUBCHEM_IUPAC_INCHI>
InChI=1S/C21H20ClN3O2/c1-15-5-7-16(8-6-15)19-14-20(27-23-19)21(26)25-11-9-24(10-12-25)18-4-2-3-17(22)13-18/h2-8,13-14H,9-12H2,1H3

> <PUBCHEM_IUPAC_INCHIKEY>
UNMPEDNLCQLGNO-UHFFFAOYSA-N

> <PUBCHEM_XLOGP3_AA>
4.4

> <PUBCHEM_EXACT_MASS>
381.124405

> <PUBCHEM_MOLECULAR_FORMULA>
C21H20ClN3O2

> <PUBCHEM_MOLECULAR_WEIGHT>
381.8554

> <PUBCHEM_OPENEYE_CAN_SMILES>
CC1=CC=C(C=C1)C2=NOC(=C2)C(=O)N3CCN(CC3)C4=CC(=CC=C4)Cl

> <PUBCHEM_OPENEYE_ISO_SMILES>
CC1=CC=C(C=C1)C2=NOC(=C2)C(=O)N3CCN(CC3)C4=CC(=CC=C4)Cl

> <PUBCHEM_CACTVS_TPSA>
49.6

> <PUBCHEM_MONOISOTOPIC_WEIGHT>
381.124405

> <PUBCHEM_TOTAL_CHARGE>
0

> <PUBCHEM_HEAVY_ATOM_COUNT>
27

> <PUBCHEM_ATOM_DEF_STEREO_COUNT>
0

> <PUBCHEM_ATOM_UDEF_STEREO_COUNT>
0

> <PUBCHEM_BOND_DEF_STEREO_COUNT>
0

> <PUBCHEM_BOND_UDEF_STEREO_COUNT>
0

> <PUBCHEM_ISOTOPIC_ATOM_COUNT>
0

> <PUBCHEM_COMPONENT_COUNT>
1

> <PUBCHEM_CACTVS_TAUTO_COUNT>
1

> <PUBCHEM_COORDINATE_TYPE>
1

> <PUBCHEM_BONDANNOTATIONS>
11  13  8

$$$$
