37715992
  CDK     0101151218

 48 50  0  0  0  0  0  0  0  0999 V2000
    4.5981    0.2327    0.0000 O   0  0  0  0  0  0  0  0  0  0  0  0
    6.3301    3.2327    0.0000 O   0  0  0  0  0  0  0  0  0  0  0  0
    5.4641   -1.2673    0.0000 N   0  0  0  0  0  0  0  0  0  0  0  0
    6.3301    1.2327    0.0000 N   0  0  3  0  0  0  0  0  0  0  0  0
    3.7321   -1.2673    0.0000 C   0  0  2  0  0  0  0  0  0  0  0  0
    2.8660   -1.7673    0.0000 C   0  0  1  0  0  0  0  0  0  0  0  0
    4.5981   -1.7673    0.0000 C   0  0  2  0  0  0  0  0  0  0  0  0
    2.8660   -2.7673    0.0000 C   0  0  0  0  0  0  0  0  0  0  0  0
    4.5981   -2.7673    0.0000 C   0  0  0  0  0  0  0  0  0  0  0  0
    3.7321   -3.2673    0.0000 C   0  0  0  0  0  0  0  0  0  0  0  0
    3.7321   -0.2673    0.0000 C   0  0  0  0  0  0  0  0  0  0  0  0
    2.0000   -1.2673    0.0000 C   0  0  0  0  0  0  0  0  0  0  0  0
    5.4641   -0.2673    0.0000 C   0  0  0  0  0  0  0  0  0  0  0  0
    6.3301    0.2327    0.0000 C   0  0  0  0  0  0  0  0  0  0  0  0
    5.4641    1.7327    0.0000 C   0  0  0  0  0  0  0  0  0  0  0  0
    7.1962    1.7327    0.0000 C   0  0  0  0  0  0  0  0  0  0  0  0
    5.4641    2.7327    0.0000 C   0  0  0  0  0  0  0  0  0  0  0  0
    7.1962    2.7327    0.0000 C   0  0  0  0  0  0  0  0  0  0  0  0
    8.0901    1.1980    0.0000 C   0  0  0  0  0  0  0  0  0  0  0  0
    8.0901    3.2673    0.0000 C   0  0  0  0  0  0  0  0  0  0  0  0
    8.9962    1.7119    0.0000 C   0  0  0  0  0  0  0  0  0  0  0  0
    8.9962    2.7535    0.0000 C   0  0  0  0  0  0  0  0  0  0  0  0
    4.2690   -0.9573    0.0000 H   0  0  0  0  0  0  0  0  0  0  0  0
    2.8660   -1.1473    0.0000 H   0  0  0  0  0  0  0  0  0  0  0  0
    4.5981   -1.1473    0.0000 H   0  0  0  0  0  0  0  0  0  0  0  0
    2.2554   -2.6597    0.0000 H   0  0  0  0  0  0  0  0  0  0  0  0
    2.6540   -3.3499    0.0000 H   0  0  0  0  0  0  0  0  0  0  0  0
    4.8101   -3.3499    0.0000 H   0  0  0  0  0  0  0  0  0  0  0  0
    5.2087   -2.6597    0.0000 H   0  0  0  0  0  0  0  0  0  0  0  0
    3.3335   -3.7423    0.0000 H   0  0  0  0  0  0  0  0  0  0  0  0
    4.1306   -3.7423    0.0000 H   0  0  0  0  0  0  0  0  0  0  0  0
    4.3521   -0.2673    0.0000 H   0  0  0  0  0  0  0  0  0  0  0  0
    3.7321    0.3527    0.0000 H   0  0  0  0  0  0  0  0  0  0  0  0
    3.1121   -0.2673    0.0000 H   0  0  0  0  0  0  0  0  0  0  0  0
    2.3100   -0.7304    0.0000 H   0  0  0  0  0  0  0  0  0  0  0  0
    1.4631   -0.9573    0.0000 H   0  0  0  0  0  0  0  0  0  0  0  0
    1.6900   -1.8043    0.0000 H   0  0  0  0  0  0  0  0  0  0  0  0
    6.0010   -1.5773    0.0000 H   0  0  0  0  0  0  0  0  0  0  0  0
    6.5422   -0.3499    0.0000 H   0  0  0  0  0  0  0  0  0  0  0  0
    6.9407    0.3403    0.0000 H   0  0  0  0  0  0  0  0  0  0  0  0
    4.8535    1.8403    0.0000 H   0  0  0  0  0  0  0  0  0  0  0  0
    5.2521    1.1501    0.0000 H   0  0  0  0  0  0  0  0  0  0  0  0
    5.2521    3.3153    0.0000 H   0  0  0  0  0  0  0  0  0  0  0  0
    4.8535    2.6250    0.0000 H   0  0  0  0  0  0  0  0  0  0  0  0
    8.0829    0.5780    0.0000 H   0  0  0  0  0  0  0  0  0  0  0  0
    8.0829    3.8873    0.0000 H   0  0  0  0  0  0  0  0  0  0  0  0
    9.5319    1.3998    0.0000 H   0  0  0  0  0  0  0  0  0  0  0  0
    9.5319    3.0656    0.0000 H   0  0  0  0  0  0  0  0  0  0  0  0
  1 13  2  0  0  0  0 
  2 17  1  0  0  0  0 
  2 18  1  0  0  0  0 
  7  3  1  1  0  0  0 
  3 13  1  0  0  0  0 
  3 38  1  0  0  0  0 
  4 14  1  0  0  0  0 
  4 15  1  0  0  0  0 
  4 16  1  0  0  0  0 
  5  6  1  0  0  0  0 
  5  7  1  0  0  0  0 
  5 11  1  1  0  0  0 
  5 23  1  0  0  0  0 
  6  8  1  0  0  0  0 
  6 12  1  1  0  0  0 
  6 24  1  0  0  0  0 
  7  9  1  0  0  0  0 
  7 25  1  0  0  0  0 
  8 10  1  0  0  0  0 
  8 26  1  0  0  0  0 
  8 27  1  0  0  0  0 
  9 10  1  0  0  0  0 
  9 28  1  0  0  0  0 
  9 29  1  0  0  0  0 
 10 30  1  0  0  0  0 
 10 31  1  0  0  0  0 
 11 32  1  0  0  0  0 
 11 33  1  0  0  0  0 
 11 34  1  0  0  0  0 
 12 35  1  0  0  0  0 
 12 36  1  0  0  0  0 
 12 37  1  0  0  0  0 
 13 14  1  0  0  0  0 
 14 39  1  0  0  0  0 
 14 40  1  0  0  0  0 
 15 17  1  0  0  0  0 
 15 41  1  0  0  0  0 
 15 42  1  0  0  0  0 
 16 18  1  0  0  0  0 
 16 19  2  0  0  0  0 
 17 43  1  0  0  0  0 
 17 44  1  0  0  0  0 
 18 20  2  0  0  0  0 
 19 21  1  0  0  0  0 
 19 45  1  0  0  0  0 
 20 22  1  0  0  0  0 
 20 46  1  0  0  0  0 
 21 22  2  0  0  0  0 
 21 47  1  0  0  0  0 
 22 48  1  0  0  0  0 
M  END
> <cdk:Title>
37715992

> <cdk:Remark>
null

> <PUBCHEM_COMPOUND_CID>
37715992

> <PUBCHEM_COMPOUND_CANONICALIZED>
1

> <PUBCHEM_CACTVS_COMPLEXITY>
387

> <PUBCHEM_CACTVS_HBOND_ACCEPTOR>
3

> <PUBCHEM_CACTVS_HBOND_DONOR>
1

> <PUBCHEM_CACTVS_ROTATABLE_BOND>
3

> <PUBCHEM_CACTVS_SUBSKEYS>
AAADceB7MAAAAAAAAAAAAAAAAAAAAAAAAAA8YIAAAAAAAACxAAAAHgAQAAAADSzhkAYyxoPABACIACVSUACCCAAhIgAIiICPbIgOZiLEsbuXOCjk1hHY6AeQwIAOgAAAAAAAEAAAAACAACQgAAAAAAAAAA==

> <PUBCHEM_IUPAC_OPENEYE_NAME>
2-(2,3-dihydro-1,4-benzoxazin-4-yl)-N-[(1S,2R,3R)-2,3-dimethylcyclohexyl]acetamide

> <PUBCHEM_IUPAC_CAS_NAME>
2-(2,3-dihydro-1,4-benzoxazin-4-yl)-N-[(1S,2R,3R)-2,3-dimethylcyclohexyl]acetamide

> <PUBCHEM_IUPAC_NAME>
2-(2,3-dihydro-1,4-benzoxazin-4-yl)-N-[(1S,2R,3R)-2,3-dimethylcyclohexyl]acetamide

> <PUBCHEM_IUPAC_SYSTEMATIC_NAME>
2-(2,3-dihydro-1,4-benzoxazin-4-yl)-N-[(1S,2R,3R)-2,3-dimethylcyclohexyl]ethanamide

> <PUBCHEM_IUPAC_TRADITIONAL_NAME>
2-(2,3-dihydro-1,4-benzoxazin-4-yl)-N-[(1S,2R,3R)-2,3-dimethylcyclohexyl]acetamide

> <PUBCHEM_IUPAC_INCHI>
InChI=1S/C18H26N2O2/c1-13-6-5-7-15(14(13)2)19-18(21)12-20-10-11-22-17-9-4-3-8-16(17)20/h3-4,8-9,13-15H,5-7,10-12H2,1-2H3,(H,19,21)/t13-,14-,15+/m1/s1

> <PUBCHEM_IUPAC_INCHIKEY>
SKQDLBATBPKBJK-KFWWJZLASA-N

> <PUBCHEM_XLOGP3_AA>
3.8

> <PUBCHEM_EXACT_MASS>
302.199428

> <PUBCHEM_MOLECULAR_FORMULA>
C18H26N2O2

> <PUBCHEM_MOLECULAR_WEIGHT>
302.41124

> <PUBCHEM_OPENEYE_CAN_SMILES>
CC1CCCC(C1C)NC(=O)CN2CCOC3=CC=CC=C32

> <PUBCHEM_OPENEYE_ISO_SMILES>
C[C@@H]1CCC[C@@H]([C@@H]1C)NC(=O)CN2CCOC3=CC=CC=C32

> <PUBCHEM_CACTVS_TPSA>
41.6

> <PUBCHEM_MONOISOTOPIC_WEIGHT>
302.199428

> <PUBCHEM_TOTAL_CHARGE>
0

> <PUBCHEM_HEAVY_ATOM_COUNT>
22

> <PUBCHEM_ATOM_DEF_STEREO_COUNT>
3

> <PUBCHEM_ATOM_UDEF_STEREO_COUNT>
0

> <PUBCHEM_BOND_DEF_STEREO_COUNT>
0

> <PUBCHEM_BOND_UDEF_STEREO_COUNT>
0

> <PUBCHEM_ISOTOPIC_ATOM_COUNT>
0

> <PUBCHEM_COMPONENT_COUNT>
1

> <PUBCHEM_CACTVS_TAUTO_COUNT>
2

> <PUBCHEM_COORDINATE_TYPE>
1

> <PUBCHEM_BONDANNOTATIONS>
16  18  8

$$$$
37715992
  CDK     0101151218

 48 50  0  0  0  0  0  0  0  0999 V2000
    4.5981    0.2327    0.0000 O   0  0  0  0  0  0  0  0  0  0  0  0
    6.3301    3.2327    0.0000 O   0  0  0  0  0  0  0  0  0  0  0  0
    5.4641   -1.2673    0.0000 N   0  0  0  0  0  0  0  0  0  0  0  0
    6.3301    1.2327    0.0000 N   0  0  3  0  0  0  0  0  0  0  0  0
    3.7321   -1.2673    0.0000 C   0  0  2  0  0  0  0  0  0  0  0  0
    2.8660   -1.7673    0.0000 C   0  0  1  0  0  0  0  0  0  0  0  0
    4.5981   -1.7673    0.0000 C   0  0  2  0  0  0  0  0  0  0  0  0
    2.8660   -2.7673    0.0000 C   0  0  0  0  0  0  0  0  0  0  0  0
    4.5981   -2.7673    0.0000 C   0  0  0  0  0  0  0  0  0  0  0  0
    3.7321   -3.2673    0.0000 C   0  0  0  0  0  0  0  0  0  0  0  0
    3.7321   -0.2673    0.0000 C   0  0  0  0  0  0  0  0  0  0  0  0
    2.0000   -1.2673    0.0000 C   0  0  0  0  0  0  0  0  0  0  0  0
    5.4641   -0.2673    0.0000 C   0  0  0  0  0  0  0  0  0  0  0  0
    6.3301    0.2327    0.0000 C   0  0  0  0  0  0  0  0  0  0  0  0
    5.4641    1.7327    0.0000 C   0  0  0  0  0  0  0  0  0  0  0  0
    7.1962    1.7327    0.0000 C   0  0  0  0  0  0  0  0  0  0  0  0
    5.4641    2.7327    0.0000 C   0  0  0  0  0  0  0  0  0  0  0  0
    7.1962    2.7327    0.0000 C   0  0  0  0  0  0  0  0  0  0  0  0
    8.0901    1.1980    0.0000 C   0  0  0  0  0  0  0  0  0  0  0  0
    8.0901    3.2673    0.0000 C   0  0  0  0  0  0  0  0  0  0  0  0
    8.9962    1.7119    0.0000 C   0  0  0  0  0  0  0  0  0  0  0  0
    8.9962    2.7535    0.0000 C   0  0  0  0  0  0  0  0  0  0  0  0
    4.2690   -0.9573    0.0000 H   0  0  0  0  0  0  0  0  0  0  0  0
    2.8660   -1.1473    0.0000 H   0  0  0  0  0  0  0  0  0  0  0  0
    4.5981   -1.1473    0.0000 H   0  0  0  0  0  0  0  0  0  0  0  0
    2.2554   -2.6597    0.0000 H   0  0  0  0  0  0  0  0  0  0  0  0
    2.6540   -3.3499    0.0000 H   0  0  0  0  0  0  0  0  0  0  0  0
    4.8101   -3.3499    0.0000 H   0  0  0  0  0  0  0  0  0  0  0  0
    5.2087   -2.6597    0.0000 H   0  0  0  0  0  0  0  0  0  0  0  0
    3.3335   -3.7423    0.0000 H   0  0  0  0  0  0  0  0  0  0  0  0
    4.1306   -3.7423    0.0000 H   0  0  0  0  0  0  0  0  0  0  0  0
    4.3521   -0.2673    0.0000 H   0  0  0  0  0  0  0  0  0  0  0  0
    3.7321    0.3527    0.0000 H   0  0  0  0  0  0  0  0  0  0  0  0
    3.1121   -0.2673    0.0000 H   0  0  0  0  0  0  0  0  0  0  0  0
    2.3100   -0.7304    0.0000 H   0  0  0  0  0  0  0  0  0  0  0  0
    1.4631   -0.9573    0.0000 H   0  0  0  0  0  0  0  0  0  0  0  0
    1.6900   -1.8043    0.0000 H   0  0  0  0  0  0  0  0  0  0  0  0
    6.0010   -1.5773    0.0000 H   0  0  0  0  0  0  0  0  0  0  0  0
    6.5422   -0.3499    0.0000 H   0  0  0  0  0  0  0  0  0  0  0  0
    6.9407    0.3403    0.0000 H   0  0  0  0  0  0  0  0  0  0  0  0
    4.8535    1.8403    0.0000 H   0  0  0  0  0  0  0  0  0  0  0  0
    5.2521    1.1501    0.0000 H   0  0  0  0  0  0  0  0  0  0  0  0
    5.2521    3.3153    0.0000 H   0  0  0  0  0  0  0  0  0  0  0  0
    4.8535    2.6250    0.0000 H   0  0  0  0  0  0  0  0  0  0  0  0
    8.0829    0.5780    0.0000 H   0  0  0  0  0  0  0  0  0  0  0  0
    8.0829    3.8873    0.0000 H   0  0  0  0  0  0  0  0  0  0  0  0
    9.5319    1.3998    0.0000 H   0  0  0  0  0  0  0  0  0  0  0  0
    9.5319    3.0656    0.0000 H   0  0  0  0  0  0  0  0  0  0  0  0
  1 13  2  0  0  0  0 
  2 17  1  0  0  0  0 
  2 18  1  0  0  0  0 
  7  3  1  1  0  0  0 
  3 13  1  0  0  0  0 
  3 38  1  0  0  0  0 
  4 14  1  0  0  0  0 
  4 15  1  0  0  0  0 
  4 16  1  0  0  0  0 
  5  6  1  0  0  0  0 
  5  7  1  0  0  0  0 
  5 11  1  1  0  0  0 
  5 23  1  0  0  0  0 
  6  8  1  0  0  0  0 
  6 12  1  1  0  0  0 
  6 24  1  0  0  0  0 
  7  9  1  0  0  0  0 
  7 25  1  0  0  0  0 
  8 10  1  0  0  0  0 
  8 26  1  0  0  0  0 
  8 27  1  0  0  0  0 
  9 10  1  0  0  0  0 
  9 28  1  0  0  0  0 
  9 29  1  0  0  0  0 
 10 30  1  0  0  0  0 
 10 31  1  0  0  0  0 
 11 32  1  0  0  0  0 
 11 33  1  0  0  0  0 
 11 34  1  0  0  0  0 
 12 35  1  0  0  0  0 
 12 36  1  0  0  0  0 
 12 37  1  0  0  0  0 
 13 14  1  0  0  0  0 
 14 39  1  0  0  0  0 
 14 40  1  0  0  0  0 
 15 17  1  0  0  0  0 
 15 41  1  0  0  0  0 
 15 42  1  0  0  0  0 
 16 18  1  0  0  0  0 
 16 19  2  0  0  0  0 
 17 43  1  0  0  0  0 
 17 44  1  0  0  0  0 
 18 20  2  0  0  0  0 
 19 21  1  0  0  0  0 
 19 45  1  0  0  0  0 
 20 22  1  0  0  0  0 
 20 46  1  0  0  0  0 
 21 22  2  0  0  0  0 
 21 47  1  0  0  0  0 
 22 48  1  0  0  0  0 
M  END
> <cdk:Title>
37715992

> <cdk:Remark>
null

> <PUBCHEM_COMPOUND_CID>
37715992

> <PUBCHEM_COMPOUND_CANONICALIZED>
1

> <PUBCHEM_CACTVS_COMPLEXITY>
387

> <PUBCHEM_CACTVS_HBOND_ACCEPTOR>
3

> <PUBCHEM_CACTVS_HBOND_DONOR>
1

> <PUBCHEM_CACTVS_ROTATABLE_BOND>
3

> <PUBCHEM_CACTVS_SUBSKEYS>
AAADceB7MAAAAAAAAAAAAAAAAAAAAAAAAAA8YIAAAAAAAACxAAAAHgAQAAAADSzhkAYyxoPABACIACVSUACCCAAhIgAIiICPbIgOZiLEsbuXOCjk1hHY6AeQwIAOgAAAAAAAEAAAAACAACQgAAAAAAAAAA==

> <PUBCHEM_IUPAC_OPENEYE_NAME>
2-(2,3-dihydro-1,4-benzoxazin-4-yl)-N-[(1S,2R,3R)-2,3-dimethylcyclohexyl]acetamide

> <PUBCHEM_IUPAC_CAS_NAME>
2-(2,3-dihydro-1,4-benzoxazin-4-yl)-N-[(1S,2R,3R)-2,3-dimethylcyclohexyl]acetamide

> <PUBCHEM_IUPAC_NAME>
2-(2,3-dihydro-1,4-benzoxazin-4-yl)-N-[(1S,2R,3R)-2,3-dimethylcyclohexyl]acetamide

> <PUBCHEM_IUPAC_SYSTEMATIC_NAME>
2-(2,3-dihydro-1,4-benzoxazin-4-yl)-N-[(1S,2R,3R)-2,3-dimethylcyclohexyl]ethanamide

> <PUBCHEM_IUPAC_TRADITIONAL_NAME>
2-(2,3-dihydro-1,4-benzoxazin-4-yl)-N-[(1S,2R,3R)-2,3-dimethylcyclohexyl]acetamide

> <PUBCHEM_IUPAC_INCHI>
InChI=1S/C18H26N2O2/c1-13-6-5-7-15(14(13)2)19-18(21)12-20-10-11-22-17-9-4-3-8-16(17)20/h3-4,8-9,13-15H,5-7,10-12H2,1-2H3,(H,19,21)/t13-,14-,15+/m1/s1

> <PUBCHEM_IUPAC_INCHIKEY>
SKQDLBATBPKBJK-KFWWJZLASA-N

> <PUBCHEM_XLOGP3_AA>
3.8

> <PUBCHEM_EXACT_MASS>
302.199428

> <PUBCHEM_MOLECULAR_FORMULA>
C18H26N2O2

> <PUBCHEM_MOLECULAR_WEIGHT>
302.41124

> <PUBCHEM_OPENEYE_CAN_SMILES>
CC1CCCC(C1C)NC(=O)CN2CCOC3=CC=CC=C32

> <PUBCHEM_OPENEYE_ISO_SMILES>
C[C@@H]1CCC[C@@H]([C@@H]1C)NC(=O)CN2CCOC3=CC=CC=C32

> <PUBCHEM_CACTVS_TPSA>
41.6

> <PUBCHEM_MONOISOTOPIC_WEIGHT>
302.199428

> <PUBCHEM_TOTAL_CHARGE>
0

> <PUBCHEM_HEAVY_ATOM_COUNT>
22

> <PUBCHEM_ATOM_DEF_STEREO_COUNT>
3

> <PUBCHEM_ATOM_UDEF_STEREO_COUNT>
0

> <PUBCHEM_BOND_DEF_STEREO_COUNT>
0

> <PUBCHEM_BOND_UDEF_STEREO_COUNT>
0

> <PUBCHEM_ISOTOPIC_ATOM_COUNT>
0

> <PUBCHEM_COMPONENT_COUNT>
1

> <PUBCHEM_CACTVS_TAUTO_COUNT>
2

> <PUBCHEM_COORDINATE_TYPE>
1

> <PUBCHEM_BONDANNOTATIONS>
16  18  8

$$$$
