37693406
  CDK     0104151047

 34 36  0  0  0  0  0  0  0  0999 V2000
    2.0000   -1.2673    0.0000 Cl  0  0  0  0  0  0  0  0  0  0  0  0
    4.5981    3.2327    0.0000 O   0  0  0  0  0  0  0  0  0  0  0  0
    5.4641   -0.2673    0.0000 O   0  0  0  0  0  0  0  0  0  0  0  0
    4.5981    1.2327    0.0000 N   0  0  0  0  0  0  0  0  0  0  0  0
    3.7320    1.7327    0.0000 C   0  0  0  0  0  0  0  0  0  0  0  0
    5.4641    1.7327    0.0000 C   0  0  0  0  0  0  0  0  0  0  0  0
    3.7320    2.7327    0.0000 C   0  0  0  0  0  0  0  0  0  0  0  0
    5.4641    2.7327    0.0000 C   0  0  0  0  0  0  0  0  0  0  0  0
    4.5981    0.2327    0.0000 C   0  0  0  0  0  0  0  0  0  0  0  0
    3.7320   -0.2673    0.0000 C   0  0  0  0  0  0  0  0  0  0  0  0
    6.3580    1.1980    0.0000 C   0  0  0  0  0  0  0  0  0  0  0  0
    3.7320   -1.2673    0.0000 C   0  0  0  0  0  0  0  0  0  0  0  0
    6.3580    3.2673    0.0000 C   0  0  0  0  0  0  0  0  0  0  0  0
    7.2641    1.7118    0.0000 C   0  0  0  0  0  0  0  0  0  0  0  0
    7.2641    2.7535    0.0000 C   0  0  0  0  0  0  0  0  0  0  0  0
    2.8660   -1.7673    0.0000 C   0  0  0  0  0  0  0  0  0  0  0  0
    4.5981   -1.7673    0.0000 C   0  0  0  0  0  0  0  0  0  0  0  0
    2.8660   -2.7673    0.0000 C   0  0  0  0  0  0  0  0  0  0  0  0
    4.5981   -2.7673    0.0000 C   0  0  0  0  0  0  0  0  0  0  0  0
    3.7320   -3.2673    0.0000 C   0  0  0  0  0  0  0  0  0  0  0  0
    3.1215    1.8403    0.0000 H   0  0  0  0  0  0  0  0  0  0  0  0
    3.5200    1.1501    0.0000 H   0  0  0  0  0  0  0  0  0  0  0  0
    3.5200    3.3153    0.0000 H   0  0  0  0  0  0  0  0  0  0  0  0
    3.1215    2.6250    0.0000 H   0  0  0  0  0  0  0  0  0  0  0  0
    3.5200    0.3153    0.0000 H   0  0  0  0  0  0  0  0  0  0  0  0
    3.1215   -0.3750    0.0000 H   0  0  0  0  0  0  0  0  0  0  0  0
    6.3509    0.5780    0.0000 H   0  0  0  0  0  0  0  0  0  0  0  0
    6.3509    3.8873    0.0000 H   0  0  0  0  0  0  0  0  0  0  0  0
    7.7998    1.3998    0.0000 H   0  0  0  0  0  0  0  0  0  0  0  0
    7.7998    3.0656    0.0000 H   0  0  0  0  0  0  0  0  0  0  0  0
    5.1350   -1.4573    0.0000 H   0  0  0  0  0  0  0  0  0  0  0  0
    2.3291   -3.0773    0.0000 H   0  0  0  0  0  0  0  0  0  0  0  0
    5.1350   -3.0773    0.0000 H   0  0  0  0  0  0  0  0  0  0  0  0
    3.7320   -3.8873    0.0000 H   0  0  0  0  0  0  0  0  0  0  0  0
  1 16  1  0  0  0  0 
  2  7  1  0  0  0  0 
  2  8  1  0  0  0  0 
  3  9  2  0  0  0  0 
  4  5  1  0  0  0  0 
  4  6  1  0  0  0  0 
  4  9  1  0  0  0  0 
  5  7  1  0  0  0  0 
  5 21  1  0  0  0  0 
  5 22  1  0  0  0  0 
  6  8  1  0  0  0  0 
  6 11  2  0  0  0  0 
  7 23  1  0  0  0  0 
  7 24  1  0  0  0  0 
  8 13  2  0  0  0  0 
  9 10  1  0  0  0  0 
 10 12  1  0  0  0  0 
 10 25  1  0  0  0  0 
 10 26  1  0  0  0  0 
 11 14  1  0  0  0  0 
 11 27  1  0  0  0  0 
 12 16  1  0  0  0  0 
 12 17  2  0  0  0  0 
 13 15  1  0  0  0  0 
 13 28  1  0  0  0  0 
 14 15  2  0  0  0  0 
 14 29  1  0  0  0  0 
 15 30  1  0  0  0  0 
 16 18  2  0  0  0  0 
 17 19  1  0  0  0  0 
 17 31  1  0  0  0  0 
 18 20  1  0  0  0  0 
 18 32  1  0  0  0  0 
 19 20  2  0  0  0  0 
 19 33  1  0  0  0  0 
 20 34  1  0  0  0  0 
M  END
> <cdk:Title>
37693406

> <cdk:Remark>
null

> <PUBCHEM_COMPOUND_CID>
37693406

> <PUBCHEM_COMPOUND_CANONICALIZED>
1

> <PUBCHEM_CACTVS_COMPLEXITY>
349

> <PUBCHEM_CACTVS_HBOND_ACCEPTOR>
2

> <PUBCHEM_CACTVS_HBOND_DONOR>
0

> <PUBCHEM_CACTVS_ROTATABLE_BOND>
2

> <PUBCHEM_CACTVS_SUBSKEYS>
AAADccB6MAAEAAAAAAAAAAAAAAAAAAAAAAA8YIAAAAAAAACxQAAAHgIAAAAADA7hmCYwxoMABACIAiVSUACCCAAhJwAIiAEPbogOJjLFt5uHOCjkxhHY6AeYyICOAAAAAAABEAAAAAAAAAIgAAAAAAAAAA==

> <PUBCHEM_IUPAC_OPENEYE_NAME>
2-(2-chlorophenyl)-1-(2,3-dihydro-1,4-benzoxazin-4-yl)ethanone

> <PUBCHEM_IUPAC_CAS_NAME>
2-(2-chlorophenyl)-1-(2,3-dihydro-1,4-benzoxazin-4-yl)ethanone

> <PUBCHEM_IUPAC_NAME>
2-(2-chlorophenyl)-1-(2,3-dihydro-1,4-benzoxazin-4-yl)ethanone

> <PUBCHEM_IUPAC_SYSTEMATIC_NAME>
2-(2-chlorophenyl)-1-(2,3-dihydro-1,4-benzoxazin-4-yl)ethanone

> <PUBCHEM_IUPAC_TRADITIONAL_NAME>
2-(2-chlorophenyl)-1-(2,3-dihydro-1,4-benzoxazin-4-yl)ethanone

> <PUBCHEM_IUPAC_INCHI>
InChI=1S/C16H14ClNO2/c17-13-6-2-1-5-12(13)11-16(19)18-9-10-20-15-8-4-3-7-14(15)18/h1-8H,9-11H2

> <PUBCHEM_IUPAC_INCHIKEY>
DTSMVOOBJYKLAA-UHFFFAOYSA-N

> <PUBCHEM_XLOGP3_AA>
3.2

> <PUBCHEM_EXACT_MASS>
287.071306

> <PUBCHEM_MOLECULAR_FORMULA>
C16H14ClNO2

> <PUBCHEM_MOLECULAR_WEIGHT>
287.74086

> <PUBCHEM_OPENEYE_CAN_SMILES>
C1COC2=CC=CC=C2N1C(=O)CC3=CC=CC=C3Cl

> <PUBCHEM_OPENEYE_ISO_SMILES>
C1COC2=CC=CC=C2N1C(=O)CC3=CC=CC=C3Cl

> <PUBCHEM_CACTVS_TPSA>
29.5

> <PUBCHEM_MONOISOTOPIC_WEIGHT>
287.071306

> <PUBCHEM_TOTAL_CHARGE>
0

> <PUBCHEM_HEAVY_ATOM_COUNT>
20

> <PUBCHEM_ATOM_DEF_STEREO_COUNT>
0

> <PUBCHEM_ATOM_UDEF_STEREO_COUNT>
0

> <PUBCHEM_BOND_DEF_STEREO_COUNT>
0

> <PUBCHEM_BOND_UDEF_STEREO_COUNT>
0

> <PUBCHEM_ISOTOPIC_ATOM_COUNT>
0

> <PUBCHEM_COMPONENT_COUNT>
1

> <PUBCHEM_CACTVS_TAUTO_COUNT>
1

> <PUBCHEM_COORDINATE_TYPE>
1

> <PUBCHEM_BONDANNOTATIONS>
11  14  8

$$$$
37693406
  CDK     0104151047

 34 36  0  0  0  0  0  0  0  0999 V2000
    2.0000   -1.2673    0.0000 Cl  0  0  0  0  0  0  0  0  0  0  0  0
    4.5981    3.2327    0.0000 O   0  0  0  0  0  0  0  0  0  0  0  0
    5.4641   -0.2673    0.0000 O   0  0  0  0  0  0  0  0  0  0  0  0
    4.5981    1.2327    0.0000 N   0  0  0  0  0  0  0  0  0  0  0  0
    3.7320    1.7327    0.0000 C   0  0  0  0  0  0  0  0  0  0  0  0
    5.4641    1.7327    0.0000 C   0  0  0  0  0  0  0  0  0  0  0  0
    3.7320    2.7327    0.0000 C   0  0  0  0  0  0  0  0  0  0  0  0
    5.4641    2.7327    0.0000 C   0  0  0  0  0  0  0  0  0  0  0  0
    4.5981    0.2327    0.0000 C   0  0  0  0  0  0  0  0  0  0  0  0
    3.7320   -0.2673    0.0000 C   0  0  0  0  0  0  0  0  0  0  0  0
    6.3580    1.1980    0.0000 C   0  0  0  0  0  0  0  0  0  0  0  0
    3.7320   -1.2673    0.0000 C   0  0  0  0  0  0  0  0  0  0  0  0
    6.3580    3.2673    0.0000 C   0  0  0  0  0  0  0  0  0  0  0  0
    7.2641    1.7118    0.0000 C   0  0  0  0  0  0  0  0  0  0  0  0
    7.2641    2.7535    0.0000 C   0  0  0  0  0  0  0  0  0  0  0  0
    2.8660   -1.7673    0.0000 C   0  0  0  0  0  0  0  0  0  0  0  0
    4.5981   -1.7673    0.0000 C   0  0  0  0  0  0  0  0  0  0  0  0
    2.8660   -2.7673    0.0000 C   0  0  0  0  0  0  0  0  0  0  0  0
    4.5981   -2.7673    0.0000 C   0  0  0  0  0  0  0  0  0  0  0  0
    3.7320   -3.2673    0.0000 C   0  0  0  0  0  0  0  0  0  0  0  0
    3.1215    1.8403    0.0000 H   0  0  0  0  0  0  0  0  0  0  0  0
    3.5200    1.1501    0.0000 H   0  0  0  0  0  0  0  0  0  0  0  0
    3.5200    3.3153    0.0000 H   0  0  0  0  0  0  0  0  0  0  0  0
    3.1215    2.6250    0.0000 H   0  0  0  0  0  0  0  0  0  0  0  0
    3.5200    0.3153    0.0000 H   0  0  0  0  0  0  0  0  0  0  0  0
    3.1215   -0.3750    0.0000 H   0  0  0  0  0  0  0  0  0  0  0  0
    6.3509    0.5780    0.0000 H   0  0  0  0  0  0  0  0  0  0  0  0
    6.3509    3.8873    0.0000 H   0  0  0  0  0  0  0  0  0  0  0  0
    7.7998    1.3998    0.0000 H   0  0  0  0  0  0  0  0  0  0  0  0
    7.7998    3.0656    0.0000 H   0  0  0  0  0  0  0  0  0  0  0  0
    5.1350   -1.4573    0.0000 H   0  0  0  0  0  0  0  0  0  0  0  0
    2.3291   -3.0773    0.0000 H   0  0  0  0  0  0  0  0  0  0  0  0
    5.1350   -3.0773    0.0000 H   0  0  0  0  0  0  0  0  0  0  0  0
    3.7320   -3.8873    0.0000 H   0  0  0  0  0  0  0  0  0  0  0  0
  1 16  1  0  0  0  0 
  2  7  1  0  0  0  0 
  2  8  1  0  0  0  0 
  3  9  2  0  0  0  0 
  4  5  1  0  0  0  0 
  4  6  1  0  0  0  0 
  4  9  1  0  0  0  0 
  5  7  1  0  0  0  0 
  5 21  1  0  0  0  0 
  5 22  1  0  0  0  0 
  6  8  1  0  0  0  0 
  6 11  2  0  0  0  0 
  7 23  1  0  0  0  0 
  7 24  1  0  0  0  0 
  8 13  2  0  0  0  0 
  9 10  1  0  0  0  0 
 10 12  1  0  0  0  0 
 10 25  1  0  0  0  0 
 10 26  1  0  0  0  0 
 11 14  1  0  0  0  0 
 11 27  1  0  0  0  0 
 12 16  1  0  0  0  0 
 12 17  2  0  0  0  0 
 13 15  1  0  0  0  0 
 13 28  1  0  0  0  0 
 14 15  2  0  0  0  0 
 14 29  1  0  0  0  0 
 15 30  1  0  0  0  0 
 16 18  2  0  0  0  0 
 17 19  1  0  0  0  0 
 17 31  1  0  0  0  0 
 18 20  1  0  0  0  0 
 18 32  1  0  0  0  0 
 19 20  2  0  0  0  0 
 19 33  1  0  0  0  0 
 20 34  1  0  0  0  0 
M  END
> <cdk:Title>
37693406

> <cdk:Remark>
null

> <PUBCHEM_COMPOUND_CID>
37693406

> <PUBCHEM_COMPOUND_CANONICALIZED>
1

> <PUBCHEM_CACTVS_COMPLEXITY>
349

> <PUBCHEM_CACTVS_HBOND_ACCEPTOR>
2

> <PUBCHEM_CACTVS_HBOND_DONOR>
0

> <PUBCHEM_CACTVS_ROTATABLE_BOND>
2

> <PUBCHEM_CACTVS_SUBSKEYS>
AAADccB6MAAEAAAAAAAAAAAAAAAAAAAAAAA8YIAAAAAAAACxQAAAHgIAAAAADA7hmCYwxoMABACIAiVSUACCCAAhJwAIiAEPbogOJjLFt5uHOCjkxhHY6AeYyICOAAAAAAABEAAAAAAAAAIgAAAAAAAAAA==

> <PUBCHEM_IUPAC_OPENEYE_NAME>
2-(2-chlorophenyl)-1-(2,3-dihydro-1,4-benzoxazin-4-yl)ethanone

> <PUBCHEM_IUPAC_CAS_NAME>
2-(2-chlorophenyl)-1-(2,3-dihydro-1,4-benzoxazin-4-yl)ethanone

> <PUBCHEM_IUPAC_NAME>
2-(2-chlorophenyl)-1-(2,3-dihydro-1,4-benzoxazin-4-yl)ethanone

> <PUBCHEM_IUPAC_SYSTEMATIC_NAME>
2-(2-chlorophenyl)-1-(2,3-dihydro-1,4-benzoxazin-4-yl)ethanone

> <PUBCHEM_IUPAC_TRADITIONAL_NAME>
2-(2-chlorophenyl)-1-(2,3-dihydro-1,4-benzoxazin-4-yl)ethanone

> <PUBCHEM_IUPAC_INCHI>
InChI=1S/C16H14ClNO2/c17-13-6-2-1-5-12(13)11-16(19)18-9-10-20-15-8-4-3-7-14(15)18/h1-8H,9-11H2

> <PUBCHEM_IUPAC_INCHIKEY>
DTSMVOOBJYKLAA-UHFFFAOYSA-N

> <PUBCHEM_XLOGP3_AA>
3.2

> <PUBCHEM_EXACT_MASS>
287.071306

> <PUBCHEM_MOLECULAR_FORMULA>
C16H14ClNO2

> <PUBCHEM_MOLECULAR_WEIGHT>
287.74086

> <PUBCHEM_OPENEYE_CAN_SMILES>
C1COC2=CC=CC=C2N1C(=O)CC3=CC=CC=C3Cl

> <PUBCHEM_OPENEYE_ISO_SMILES>
C1COC2=CC=CC=C2N1C(=O)CC3=CC=CC=C3Cl

> <PUBCHEM_CACTVS_TPSA>
29.5

> <PUBCHEM_MONOISOTOPIC_WEIGHT>
287.071306

> <PUBCHEM_TOTAL_CHARGE>
0

> <PUBCHEM_HEAVY_ATOM_COUNT>
20

> <PUBCHEM_ATOM_DEF_STEREO_COUNT>
0

> <PUBCHEM_ATOM_UDEF_STEREO_COUNT>
0

> <PUBCHEM_BOND_DEF_STEREO_COUNT>
0

> <PUBCHEM_BOND_UDEF_STEREO_COUNT>
0

> <PUBCHEM_ISOTOPIC_ATOM_COUNT>
0

> <PUBCHEM_COMPONENT_COUNT>
1

> <PUBCHEM_CACTVS_TAUTO_COUNT>
1

> <PUBCHEM_COORDINATE_TYPE>
1

> <PUBCHEM_BONDANNOTATIONS>
11  14  8

$$$$
