41521370
  CDK     0104151047

 31 32  0  0  0  0  0  0  0  0999 V2000
    2.0000   -1.0000    0.0000 Br  0  0  0  0  0  0  0  0  0  0  0  0
    6.5000   -0.1340    0.0000 N   0  0  0  0  0  0  0  0  0  0  0  0
    5.6340    0.3660    0.0000 C   0  0  0  0  0  0  0  0  0  0  0  0
    7.3660    0.3660    0.0000 C   0  0  0  0  0  0  0  0  0  0  0  0
    5.6340    1.3660    0.0000 C   0  0  0  0  0  0  0  0  0  0  0  0
    7.3660    1.3660    0.0000 C   0  0  0  0  0  0  0  0  0  0  0  0
    6.5000    1.8660    0.0000 C   0  0  0  0  0  0  0  0  0  0  0  0
    6.0000   -1.0000    0.0000 C   0  0  0  0  0  0  0  0  0  0  0  0
    5.0000   -1.0000    0.0000 C   0  0  0  0  0  0  0  0  0  0  0  0
    4.5000   -0.1340    0.0000 C   0  0  0  0  0  0  0  0  0  0  0  0
    4.5000   -1.8660    0.0000 C   0  0  0  0  0  0  0  0  0  0  0  0
    3.5000   -0.1340    0.0000 C   0  0  0  0  0  0  0  0  0  0  0  0
    3.5000   -1.8660    0.0000 C   0  0  0  0  0  0  0  0  0  0  0  0
    3.0000   -1.0000    0.0000 C   0  0  0  0  0  0  0  0  0  0  0  0
    6.8100   -0.6709    0.0000 H   0  0  0  0  0  0  0  0  0  0  0  0
    5.0234    0.4737    0.0000 H   0  0  0  0  0  0  0  0  0  0  0  0
    5.4219   -0.2166    0.0000 H   0  0  0  0  0  0  0  0  0  0  0  0
    7.5781   -0.2166    0.0000 H   0  0  0  0  0  0  0  0  0  0  0  0
    7.9766    0.4737    0.0000 H   0  0  0  0  0  0  0  0  0  0  0  0
    5.4219    1.9486    0.0000 H   0  0  0  0  0  0  0  0  0  0  0  0
    5.0234    1.2584    0.0000 H   0  0  0  0  0  0  0  0  0  0  0  0
    7.9766    1.2584    0.0000 H   0  0  0  0  0  0  0  0  0  0  0  0
    7.5781    1.9486    0.0000 H   0  0  0  0  0  0  0  0  0  0  0  0
    6.8985    2.3410    0.0000 H   0  0  0  0  0  0  0  0  0  0  0  0
    6.1015    2.3410    0.0000 H   0  0  0  0  0  0  0  0  0  0  0  0
    5.8923   -1.6106    0.0000 H   0  0  0  0  0  0  0  0  0  0  0  0
    6.5826   -1.2120    0.0000 H   0  0  0  0  0  0  0  0  0  0  0  0
    4.8100    0.4030    0.0000 H   0  0  0  0  0  0  0  0  0  0  0  0
    4.8100   -2.4030    0.0000 H   0  0  0  0  0  0  0  0  0  0  0  0
    3.1900    0.4030    0.0000 H   0  0  0  0  0  0  0  0  0  0  0  0
    3.1900   -2.4030    0.0000 H   0  0  0  0  0  0  0  0  0  0  0  0
  1 14  1  0  0  0  0 
  2  3  1  0  0  0  0 
  2  4  1  0  0  0  0 
  2  8  1  0  0  0  0 
  2 15  1  0  0  0  0 
  3  5  1  0  0  0  0 
  3 16  1  0  0  0  0 
  3 17  1  0  0  0  0 
  4  6  1  0  0  0  0 
  4 18  1  0  0  0  0 
  4 19  1  0  0  0  0 
  5  7  1  0  0  0  0 
  5 20  1  0  0  0  0 
  5 21  1  0  0  0  0 
  6  7  1  0  0  0  0 
  6 22  1  0  0  0  0 
  6 23  1  0  0  0  0 
  7 24  1  0  0  0  0 
  7 25  1  0  0  0  0 
  8  9  1  0  0  0  0 
  8 26  1  0  0  0  0 
  8 27  1  0  0  0  0 
  9 10  2  0  0  0  0 
  9 11  1  0  0  0  0 
 10 12  1  0  0  0  0 
 10 28  1  0  0  0  0 
 11 13  2  0  0  0  0 
 11 29  1  0  0  0  0 
 12 14  2  0  0  0  0 
 12 30  1  0  0  0  0 
 13 14  1  0  0  0  0 
 13 31  1  0  0  0  0 
M  CHG  1   2   1
M  END
> <cdk:Title>
41521370

> <cdk:Remark>
null

> <PUBCHEM_COMPOUND_CID>
41521370

> <PUBCHEM_COMPOUND_CANONICALIZED>
1

> <PUBCHEM_CACTVS_COMPLEXITY>
158

> <PUBCHEM_CACTVS_HBOND_ACCEPTOR>
0

> <PUBCHEM_CACTVS_HBOND_DONOR>
1

> <PUBCHEM_CACTVS_ROTATABLE_BOND>
2

> <PUBCHEM_CACTVS_SUBSKEYS>
AAADceByAAAAEAAAAAAAAAAAAAAAAAAAAAA8QAAAAAAAAAABAAAAHABQAAABrADBGAQwAIPAAACAAiBCAACCAAAgAAQIiIAIBKgIICKAkRGEIAhgkACIihcQgAAOAgAAAAAAAAAEAAAAAAAAAAAAAAAAAA==

> <PUBCHEM_IUPAC_OPENEYE_NAME>
1-[(4-bromophenyl)methyl]piperidin-1-ium

> <PUBCHEM_IUPAC_CAS_NAME>
1-[(4-bromophenyl)methyl]piperidin-1-ium

> <PUBCHEM_IUPAC_NAME>
1-[(4-bromophenyl)methyl]piperidin-1-ium

> <PUBCHEM_IUPAC_SYSTEMATIC_NAME>
1-[(4-bromophenyl)methyl]piperidin-1-ium

> <PUBCHEM_IUPAC_TRADITIONAL_NAME>
1-(4-bromobenzyl)piperidin-1-ium

> <PUBCHEM_IUPAC_INCHI>
InChI=1S/C12H16BrN/c13-12-6-4-11(5-7-12)10-14-8-2-1-3-9-14/h4-7H,1-3,8-10H2/p+1

> <PUBCHEM_IUPAC_INCHIKEY>
ILQFFXGIIWWTNH-UHFFFAOYSA-O

> <PUBCHEM_XLOGP3_AA>
3.3

> <PUBCHEM_EXACT_MASS>
254.054437

> <PUBCHEM_MOLECULAR_FORMULA>
C12H17BrN+

> <PUBCHEM_MOLECULAR_WEIGHT>
255.17408

> <PUBCHEM_OPENEYE_CAN_SMILES>
C1CC[NH+](CC1)CC2=CC=C(C=C2)Br

> <PUBCHEM_OPENEYE_ISO_SMILES>
C1CC[NH+](CC1)CC2=CC=C(C=C2)Br

> <PUBCHEM_CACTVS_TPSA>
4.4

> <PUBCHEM_MONOISOTOPIC_WEIGHT>
254.054437

> <PUBCHEM_TOTAL_CHARGE>
1

> <PUBCHEM_HEAVY_ATOM_COUNT>
14

> <PUBCHEM_ATOM_DEF_STEREO_COUNT>
0

> <PUBCHEM_ATOM_UDEF_STEREO_COUNT>
0

> <PUBCHEM_BOND_DEF_STEREO_COUNT>
0

> <PUBCHEM_BOND_UDEF_STEREO_COUNT>
0

> <PUBCHEM_ISOTOPIC_ATOM_COUNT>
0

> <PUBCHEM_COMPONENT_COUNT>
1

> <PUBCHEM_CACTVS_TAUTO_COUNT>
1

> <PUBCHEM_COORDINATE_TYPE>
1

> <PUBCHEM_BONDANNOTATIONS>
10  12  8

$$$$
41521370
  CDK     0104151047

 31 32  0  0  0  0  0  0  0  0999 V2000
    2.0000   -1.0000    0.0000 Br  0  0  0  0  0  0  0  0  0  0  0  0
    6.5000   -0.1340    0.0000 N   0  0  0  0  0  0  0  0  0  0  0  0
    5.6340    0.3660    0.0000 C   0  0  0  0  0  0  0  0  0  0  0  0
    7.3660    0.3660    0.0000 C   0  0  0  0  0  0  0  0  0  0  0  0
    5.6340    1.3660    0.0000 C   0  0  0  0  0  0  0  0  0  0  0  0
    7.3660    1.3660    0.0000 C   0  0  0  0  0  0  0  0  0  0  0  0
    6.5000    1.8660    0.0000 C   0  0  0  0  0  0  0  0  0  0  0  0
    6.0000   -1.0000    0.0000 C   0  0  0  0  0  0  0  0  0  0  0  0
    5.0000   -1.0000    0.0000 C   0  0  0  0  0  0  0  0  0  0  0  0
    4.5000   -0.1340    0.0000 C   0  0  0  0  0  0  0  0  0  0  0  0
    4.5000   -1.8660    0.0000 C   0  0  0  0  0  0  0  0  0  0  0  0
    3.5000   -0.1340    0.0000 C   0  0  0  0  0  0  0  0  0  0  0  0
    3.5000   -1.8660    0.0000 C   0  0  0  0  0  0  0  0  0  0  0  0
    3.0000   -1.0000    0.0000 C   0  0  0  0  0  0  0  0  0  0  0  0
    6.8100   -0.6709    0.0000 H   0  0  0  0  0  0  0  0  0  0  0  0
    5.0234    0.4737    0.0000 H   0  0  0  0  0  0  0  0  0  0  0  0
    5.4219   -0.2166    0.0000 H   0  0  0  0  0  0  0  0  0  0  0  0
    7.5781   -0.2166    0.0000 H   0  0  0  0  0  0  0  0  0  0  0  0
    7.9766    0.4737    0.0000 H   0  0  0  0  0  0  0  0  0  0  0  0
    5.4219    1.9486    0.0000 H   0  0  0  0  0  0  0  0  0  0  0  0
    5.0234    1.2584    0.0000 H   0  0  0  0  0  0  0  0  0  0  0  0
    7.9766    1.2584    0.0000 H   0  0  0  0  0  0  0  0  0  0  0  0
    7.5781    1.9486    0.0000 H   0  0  0  0  0  0  0  0  0  0  0  0
    6.8985    2.3410    0.0000 H   0  0  0  0  0  0  0  0  0  0  0  0
    6.1015    2.3410    0.0000 H   0  0  0  0  0  0  0  0  0  0  0  0
    5.8923   -1.6106    0.0000 H   0  0  0  0  0  0  0  0  0  0  0  0
    6.5826   -1.2120    0.0000 H   0  0  0  0  0  0  0  0  0  0  0  0
    4.8100    0.4030    0.0000 H   0  0  0  0  0  0  0  0  0  0  0  0
    4.8100   -2.4030    0.0000 H   0  0  0  0  0  0  0  0  0  0  0  0
    3.1900    0.4030    0.0000 H   0  0  0  0  0  0  0  0  0  0  0  0
    3.1900   -2.4030    0.0000 H   0  0  0  0  0  0  0  0  0  0  0  0
  1 14  1  0  0  0  0 
  2  3  1  0  0  0  0 
  2  4  1  0  0  0  0 
  2  8  1  0  0  0  0 
  2 15  1  0  0  0  0 
  3  5  1  0  0  0  0 
  3 16  1  0  0  0  0 
  3 17  1  0  0  0  0 
  4  6  1  0  0  0  0 
  4 18  1  0  0  0  0 
  4 19  1  0  0  0  0 
  5  7  1  0  0  0  0 
  5 20  1  0  0  0  0 
  5 21  1  0  0  0  0 
  6  7  1  0  0  0  0 
  6 22  1  0  0  0  0 
  6 23  1  0  0  0  0 
  7 24  1  0  0  0  0 
  7 25  1  0  0  0  0 
  8  9  1  0  0  0  0 
  8 26  1  0  0  0  0 
  8 27  1  0  0  0  0 
  9 10  2  0  0  0  0 
  9 11  1  0  0  0  0 
 10 12  1  0  0  0  0 
 10 28  1  0  0  0  0 
 11 13  2  0  0  0  0 
 11 29  1  0  0  0  0 
 12 14  2  0  0  0  0 
 12 30  1  0  0  0  0 
 13 14  1  0  0  0  0 
 13 31  1  0  0  0  0 
M  CHG  1   2   1
M  END
> <cdk:Title>
41521370

> <cdk:Remark>
null

> <PUBCHEM_COMPOUND_CID>
41521370

> <PUBCHEM_COMPOUND_CANONICALIZED>
1

> <PUBCHEM_CACTVS_COMPLEXITY>
158

> <PUBCHEM_CACTVS_HBOND_ACCEPTOR>
0

> <PUBCHEM_CACTVS_HBOND_DONOR>
1

> <PUBCHEM_CACTVS_ROTATABLE_BOND>
2

> <PUBCHEM_CACTVS_SUBSKEYS>
AAADceByAAAAEAAAAAAAAAAAAAAAAAAAAAA8QAAAAAAAAAABAAAAHABQAAABrADBGAQwAIPAAACAAiBCAACCAAAgAAQIiIAIBKgIICKAkRGEIAhgkACIihcQgAAOAgAAAAAAAAAEAAAAAAAAAAAAAAAAAA==

> <PUBCHEM_IUPAC_OPENEYE_NAME>
1-[(4-bromophenyl)methyl]piperidin-1-ium

> <PUBCHEM_IUPAC_CAS_NAME>
1-[(4-bromophenyl)methyl]piperidin-1-ium

> <PUBCHEM_IUPAC_NAME>
1-[(4-bromophenyl)methyl]piperidin-1-ium

> <PUBCHEM_IUPAC_SYSTEMATIC_NAME>
1-[(4-bromophenyl)methyl]piperidin-1-ium

> <PUBCHEM_IUPAC_TRADITIONAL_NAME>
1-(4-bromobenzyl)piperidin-1-ium

> <PUBCHEM_IUPAC_INCHI>
InChI=1S/C12H16BrN/c13-12-6-4-11(5-7-12)10-14-8-2-1-3-9-14/h4-7H,1-3,8-10H2/p+1

> <PUBCHEM_IUPAC_INCHIKEY>
ILQFFXGIIWWTNH-UHFFFAOYSA-O

> <PUBCHEM_XLOGP3_AA>
3.3

> <PUBCHEM_EXACT_MASS>
254.054437

> <PUBCHEM_MOLECULAR_FORMULA>
C12H17BrN+

> <PUBCHEM_MOLECULAR_WEIGHT>
255.17408

> <PUBCHEM_OPENEYE_CAN_SMILES>
C1CC[NH+](CC1)CC2=CC=C(C=C2)Br

> <PUBCHEM_OPENEYE_ISO_SMILES>
C1CC[NH+](CC1)CC2=CC=C(C=C2)Br

> <PUBCHEM_CACTVS_TPSA>
4.4

> <PUBCHEM_MONOISOTOPIC_WEIGHT>
254.054437

> <PUBCHEM_TOTAL_CHARGE>
1

> <PUBCHEM_HEAVY_ATOM_COUNT>
14

> <PUBCHEM_ATOM_DEF_STEREO_COUNT>
0

> <PUBCHEM_ATOM_UDEF_STEREO_COUNT>
0

> <PUBCHEM_BOND_DEF_STEREO_COUNT>
0

> <PUBCHEM_BOND_UDEF_STEREO_COUNT>
0

> <PUBCHEM_ISOTOPIC_ATOM_COUNT>
0

> <PUBCHEM_COMPONENT_COUNT>
1

> <PUBCHEM_CACTVS_TAUTO_COUNT>
1

> <PUBCHEM_COORDINATE_TYPE>
1

> <PUBCHEM_BONDANNOTATIONS>
10  12  8

$$$$
