66166605
  CDK     0104151102

 23 22  0  0  0  0  0  0  0  0999 V2000
    7.1962    1.0950    0.0000 O   0  0  0  0  0  0  0  0  0  0  0  0
    8.9282    0.0950    0.0000 O   0  0  0  0  0  0  0  0  0  0  0  0
    8.0622   -1.4050    0.0000 O   0  0  0  0  0  0  0  0  0  0  0  0
    4.5981   -1.4050    0.0000 O   0  0  0  0  0  0  0  0  0  0  0  0
    5.4641    0.0950    0.0000 N   0  0  0  0  0  0  0  0  0  0  0  0
    6.3301   -0.4050    0.0000 C   0  0  0  0  0  0  0  0  0  0  0  0
    7.1962    0.0950    0.0000 C   0  0  3  0  0  0  0  0  0  0  0  0
    8.0622   -0.4050    0.0000 C   0  0  0  0  0  0  0  0  0  0  0  0
    4.5981   -0.4050    0.0000 C   0  0  0  0  0  0  0  0  0  0  0  0
    3.7320    0.0950    0.0000 C   0  0  0  0  0  0  0  0  0  0  0  0
    2.8660   -0.4050    0.0000 C   0  0  0  0  0  0  0  0  0  0  0  0
    2.0000    0.0950    0.0000 C   0  0  0  0  0  0  0  0  0  0  0  0
    5.9316   -0.8799    0.0000 H   0  0  0  0  0  0  0  0  0  0  0  0
    6.7287   -0.8799    0.0000 H   0  0  0  0  0  0  0  0  0  0  0  0
    6.6592    0.4050    0.0000 H   0  0  0  0  0  0  0  0  0  0  0  0
    5.4641    0.7150    0.0000 H   0  0  0  0  0  0  0  0  0  0  0  0
    7.7331    1.4050    0.0000 H   0  0  0  0  0  0  0  0  0  0  0  0
    3.7320    0.7150    0.0000 H   0  0  0  0  0  0  0  0  0  0  0  0
    2.8660   -1.0250    0.0000 H   0  0  0  0  0  0  0  0  0  0  0  0
    9.4651   -0.2150    0.0000 H   0  0  0  0  0  0  0  0  0  0  0  0
    2.3100    0.6319    0.0000 H   0  0  0  0  0  0  0  0  0  0  0  0
    1.4631    0.4050    0.0000 H   0  0  0  0  0  0  0  0  0  0  0  0
    1.6900   -0.4419    0.0000 H   0  0  0  0  0  0  0  0  0  0  0  0
  1  7  1  0  0  0  0 
  1 17  1  0  0  0  0 
  2  8  1  0  0  0  0 
  2 20  1  0  0  0  0 
  3  8  2  0  0  0  0 
  4  9  2  0  0  0  0 
  5  6  1  0  0  0  0 
  5  9  1  0  0  0  0 
  5 16  1  0  0  0  0 
  6  7  1  0  0  0  0 
  6 13  1  0  0  0  0 
  6 14  1  0  0  0  0 
  7  8  1  0  0  0  0 
  7 15  1  0  0  0  0 
  9 10  1  0  0  0  0 
 10 11  2  0  0  0  0 
 10 18  1  0  0  0  0 
 11 12  1  0  0  0  0 
 11 19  1  0  0  0  0 
 12 21  1  0  0  0  0 
 12 22  1  0  0  0  0 
 12 23  1  0  0  0  0 
M  END
> <cdk:Title>
66166605

> <cdk:Remark>
null

> <PUBCHEM_COMPOUND_CID>
66166605

> <PUBCHEM_COMPOUND_CANONICALIZED>
1

> <PUBCHEM_CACTVS_COMPLEXITY>
200

> <PUBCHEM_CACTVS_HBOND_ACCEPTOR>
4

> <PUBCHEM_CACTVS_HBOND_DONOR>
3

> <PUBCHEM_CACTVS_ROTATABLE_BOND>
4

> <PUBCHEM_CACTVS_SUBSKEYS>
AAADccBiOAAAAAAAAAAAAAAAAAAAAAAAAAAAAAAAAAAAAAAAAAAAHgAQCAAACBThgAYCCALAAgCIACHSGAKAAAAAAAAICIFIAEADEAgAAQAEQAACFgCRAYAAAAAAAAAAAAAAAAAAAAAAAAAAAAAAAAAAAA==

> <PUBCHEM_IUPAC_OPENEYE_NAME>
3-[[(E)-but-2-enoyl]amino]-2-hydroxy-propanoic acid

> <PUBCHEM_IUPAC_CAS_NAME>
2-hydroxy-3-[[(E)-1-oxobut-2-enyl]amino]propanoic acid

> <PUBCHEM_IUPAC_NAME>
3-[[(E)-but-2-enoyl]amino]-2-hydroxypropanoic acid

> <PUBCHEM_IUPAC_SYSTEMATIC_NAME>
3-[[(E)-but-2-enoyl]amino]-2-oxidanyl-propanoic acid

> <PUBCHEM_IUPAC_TRADITIONAL_NAME>
3-[[(E)-but-2-enoyl]amino]-2-hydroxy-propionic acid

> <PUBCHEM_IUPAC_INCHI>
InChI=1S/C7H11NO4/c1-2-3-6(10)8-4-5(9)7(11)12/h2-3,5,9H,4H2,1H3,(H,8,10)(H,11,12)/b3-2+

> <PUBCHEM_IUPAC_INCHIKEY>
MCWUEOJSUIVLBP-NSCUHMNNSA-N

> <PUBCHEM_XLOGP3_AA>
-0.7

> <PUBCHEM_EXACT_MASS>
173.068808

> <PUBCHEM_MOLECULAR_FORMULA>
C7H11NO4

> <PUBCHEM_MOLECULAR_WEIGHT>
173.16654

> <PUBCHEM_OPENEYE_CAN_SMILES>
CC=CC(=O)NCC(C(=O)O)O

> <PUBCHEM_OPENEYE_ISO_SMILES>
C/C=C/C(=O)NCC(C(=O)O)O

> <PUBCHEM_CACTVS_TPSA>
86.6

> <PUBCHEM_MONOISOTOPIC_WEIGHT>
173.068808

> <PUBCHEM_TOTAL_CHARGE>
0

> <PUBCHEM_HEAVY_ATOM_COUNT>
12

> <PUBCHEM_ATOM_DEF_STEREO_COUNT>
0

> <PUBCHEM_ATOM_UDEF_STEREO_COUNT>
1

> <PUBCHEM_BOND_DEF_STEREO_COUNT>
1

> <PUBCHEM_BOND_UDEF_STEREO_COUNT>
0

> <PUBCHEM_ISOTOPIC_ATOM_COUNT>
0

> <PUBCHEM_COMPONENT_COUNT>
1

> <PUBCHEM_CACTVS_TAUTO_COUNT>
2

> <PUBCHEM_COORDINATE_TYPE>
1

> <PUBCHEM_BONDANNOTATIONS>
7  1  3

$$$$
