56229473
  CDK     1227140956

 48 50  0  0  0  0  0  0  0  0999 V2000
    6.2372   -5.1589    0.0000 Cl  0  0  0  0  0  0  0  0  0  0  0  0
    4.5981    3.6615    0.0000 O   0  0  0  0  0  0  0  0  0  0  0  0
    2.8660    2.6615    0.0000 O   0  0  0  0  0  0  0  0  0  0  0  0
    4.5981   -2.3385    0.0000 O   0  0  0  0  0  0  0  0  0  0  0  0
    4.5981    5.6615    0.0000 O   0  0  0  0  0  0  0  0  0  0  0  0
    5.4641   -0.8385    0.0000 N   0  0  0  0  0  0  0  0  0  0  0  0
    7.4128   -3.5409    0.0000 N   0  0  0  0  0  0  0  0  0  0  0  0
    6.4347   -3.3330    0.0000 N   0  0  0  0  0  0  0  0  0  0  0  0
    6.3301    5.6615    0.0000 N   0  0  0  0  0  0  0  0  0  0  0  0
    4.5981    0.6615    0.0000 C   0  0  0  0  0  0  0  0  0  0  0  0
    4.5981   -0.3385    0.0000 C   0  0  0  0  0  0  0  0  0  0  0  0
    3.7320    1.1615    0.0000 C   0  0  0  0  0  0  0  0  0  0  0  0
    5.4641    1.1615    0.0000 C   0  0  0  0  0  0  0  0  0  0  0  0
    3.7320    2.1615    0.0000 C   0  0  0  0  0  0  0  0  0  0  0  0
    4.5981    2.6615    0.0000 C   0  0  0  0  0  0  0  0  0  0  0  0
    6.3301   -2.3385    0.0000 C   0  0  0  0  0  0  0  0  0  0  0  0
    5.4641    2.1615    0.0000 C   0  0  0  0  0  0  0  0  0  0  0  0
    5.4641   -1.8385    0.0000 C   0  0  0  0  0  0  0  0  0  0  0  0
    7.8195   -4.4544    0.0000 C   0  0  0  0  0  0  0  0  0  0  0  0
    7.2437   -1.9317    0.0000 C   0  0  0  0  0  0  0  0  0  0  0  0
    7.9128   -2.6749    0.0000 C   0  0  0  0  0  0  0  0  0  0  0  0
    7.2318   -5.2635    0.0000 C   0  0  0  0  0  0  0  0  0  0  0  0
    8.8141   -4.5590    0.0000 C   0  0  0  0  0  0  0  0  0  0  0  0
    7.6385   -6.1770    0.0000 C   0  0  0  0  0  0  0  0  0  0  0  0
    9.2208   -5.4725    0.0000 C   0  0  0  0  0  0  0  0  0  0  0  0
    5.4641    4.1615    0.0000 C   0  0  0  0  0  0  0  0  0  0  0  0
    8.6330   -6.2815    0.0000 C   0  0  0  0  0  0  0  0  0  0  0  0
    2.0000    2.1615    0.0000 C   0  0  0  0  0  0  0  0  0  0  0  0
    5.4641    5.1615    0.0000 C   0  0  0  0  0  0  0  0  0  0  0  0
    3.9875   -0.2308    0.0000 H   0  0  0  0  0  0  0  0  0  0  0  0
    4.3860   -0.9211    0.0000 H   0  0  0  0  0  0  0  0  0  0  0  0
    3.1951    0.8515    0.0000 H   0  0  0  0  0  0  0  0  0  0  0  0
    6.0010    0.8515    0.0000 H   0  0  0  0  0  0  0  0  0  0  0  0
    6.0010   -0.5285    0.0000 H   0  0  0  0  0  0  0  0  0  0  0  0
    6.0010    2.4715    0.0000 H   0  0  0  0  0  0  0  0  0  0  0  0
    7.3726   -1.3253    0.0000 H   0  0  0  0  0  0  0  0  0  0  0  0
    8.5294   -2.6101    0.0000 H   0  0  0  0  0  0  0  0  0  0  0  0
    9.1785   -4.0574    0.0000 H   0  0  0  0  0  0  0  0  0  0  0  0
    7.2741   -6.6786    0.0000 H   0  0  0  0  0  0  0  0  0  0  0  0
    9.8374   -5.5373    0.0000 H   0  0  0  0  0  0  0  0  0  0  0  0
    5.6762    3.5789    0.0000 H   0  0  0  0  0  0  0  0  0  0  0  0
    6.0747    4.2692    0.0000 H   0  0  0  0  0  0  0  0  0  0  0  0
    8.8852   -6.8479    0.0000 H   0  0  0  0  0  0  0  0  0  0  0  0
    1.6900    2.6985    0.0000 H   0  0  0  0  0  0  0  0  0  0  0  0
    1.4631    1.8515    0.0000 H   0  0  0  0  0  0  0  0  0  0  0  0
    2.3100    1.6246    0.0000 H   0  0  0  0  0  0  0  0  0  0  0  0
    6.3301    6.2815    0.0000 H   0  0  0  0  0  0  0  0  0  0  0  0
    6.8671    5.3515    0.0000 H   0  0  0  0  0  0  0  0  0  0  0  0
  1 22  1  0  0  0  0 
  2 15  1  0  0  0  0 
  2 26  1  0  0  0  0 
  3 14  1  0  0  0  0 
  3 28  1  0  0  0  0 
  4 18  2  0  0  0  0 
  5 29  2  0  0  0  0 
  6 11  1  0  0  0  0 
  6 18  1  0  0  0  0 
  6 34  1  0  0  0  0 
  7  8  1  0  0  0  0 
  7 19  1  0  0  0  0 
  7 21  1  0  0  0  0 
  8 16  2  0  0  0  0 
  9 29  1  0  0  0  0 
  9 47  1  0  0  0  0 
  9 48  1  0  0  0  0 
 10 11  1  0  0  0  0 
 10 12  2  0  0  0  0 
 10 13  1  0  0  0  0 
 11 30  1  0  0  0  0 
 11 31  1  0  0  0  0 
 12 14  1  0  0  0  0 
 12 32  1  0  0  0  0 
 13 17  2  0  0  0  0 
 13 33  1  0  0  0  0 
 14 15  2  0  0  0  0 
 15 17  1  0  0  0  0 
 16 18  1  0  0  0  0 
 16 20  1  0  0  0  0 
 17 35  1  0  0  0  0 
 19 22  1  0  0  0  0 
 19 23  2  0  0  0  0 
 20 21  2  0  0  0  0 
 20 36  1  0  0  0  0 
 21 37  1  0  0  0  0 
 22 24  2  0  0  0  0 
 23 25  1  0  0  0  0 
 23 38  1  0  0  0  0 
 24 27  1  0  0  0  0 
 24 39  1  0  0  0  0 
 25 27  2  0  0  0  0 
 25 40  1  0  0  0  0 
 26 29  1  0  0  0  0 
 26 41  1  0  0  0  0 
 26 42  1  0  0  0  0 
 27 43  1  0  0  0  0 
 28 44  1  0  0  0  0 
 28 45  1  0  0  0  0 
 28 46  1  0  0  0  0 
M  END
> <cdk:Title>
56229473

> <cdk:Remark>
null

> <PUBCHEM_COMPOUND_CID>
56229473

> <PUBCHEM_COMPOUND_CANONICALIZED>
1

> <PUBCHEM_CACTVS_COMPLEXITY>
567

> <PUBCHEM_CACTVS_HBOND_ACCEPTOR>
5

> <PUBCHEM_CACTVS_HBOND_DONOR>
2

> <PUBCHEM_CACTVS_ROTATABLE_BOND>
8

> <PUBCHEM_CACTVS_SUBSKEYS>
AAADceB7uAAEAAAAAAAAAAAAAAAAAWAAAAAwYAAAAAAAAAAB0AAAHgIYAAAADA7hniY+xpLIBACqAzV3VAKSDCA3pwAYmKH+7tgPZvLF99/XvSrk3hHK6Ye00BIOIAABAAAAQBBAAAIAAACAIAAAAAAAAA==

> <PUBCHEM_IUPAC_OPENEYE_NAME>
N-[[4-(2-amino-2-oxo-ethoxy)-3-methoxy-phenyl]methyl]-1-(2-chlorophenyl)pyrazole-3-carboxamide

> <PUBCHEM_IUPAC_CAS_NAME>
N-[[4-(2-amino-2-oxoethoxy)-3-methoxyphenyl]methyl]-1-(2-chlorophenyl)-3-pyrazolecarboxamide

> <PUBCHEM_IUPAC_NAME>
N-[[4-(2-amino-2-oxoethoxy)-3-methoxyphenyl]methyl]-1-(2-chlorophenyl)pyrazole-3-carboxamide

> <PUBCHEM_IUPAC_SYSTEMATIC_NAME>
N-[[4-(2-azanyl-2-oxidanylidene-ethoxy)-3-methoxy-phenyl]methyl]-1-(2-chlorophenyl)pyrazole-3-carboxamide

> <PUBCHEM_IUPAC_TRADITIONAL_NAME>
N-[4-(2-amino-2-keto-ethoxy)-3-methoxy-benzyl]-1-(2-chlorophenyl)pyrazole-3-carboxamide

> <PUBCHEM_IUPAC_INCHI>
InChI=1S/C20H19ClN4O4/c1-28-18-10-13(6-7-17(18)29-12-19(22)26)11-23-20(27)15-8-9-25(24-15)16-5-3-2-4-14(16)21/h2-10H,11-12H2,1H3,(H2,22,26)(H,23,27)

> <PUBCHEM_IUPAC_INCHIKEY>
AGEZJODCQQGPBB-UHFFFAOYSA-N

> <PUBCHEM_XLOGP3_AA>
2.5

> <PUBCHEM_EXACT_MASS>
414.109483

> <PUBCHEM_MOLECULAR_FORMULA>
C20H19ClN4O4

> <PUBCHEM_MOLECULAR_WEIGHT>
414.84226

> <PUBCHEM_OPENEYE_CAN_SMILES>
COC1=C(C=CC(=C1)CNC(=O)C2=NN(C=C2)C3=CC=CC=C3Cl)OCC(=O)N

> <PUBCHEM_OPENEYE_ISO_SMILES>
COC1=C(C=CC(=C1)CNC(=O)C2=NN(C=C2)C3=CC=CC=C3Cl)OCC(=O)N

> <PUBCHEM_CACTVS_TPSA>
109

> <PUBCHEM_MONOISOTOPIC_WEIGHT>
414.109483

> <PUBCHEM_TOTAL_CHARGE>
0

> <PUBCHEM_HEAVY_ATOM_COUNT>
29

> <PUBCHEM_ATOM_DEF_STEREO_COUNT>
0

> <PUBCHEM_ATOM_UDEF_STEREO_COUNT>
0

> <PUBCHEM_BOND_DEF_STEREO_COUNT>
0

> <PUBCHEM_BOND_UDEF_STEREO_COUNT>
0

> <PUBCHEM_ISOTOPIC_ATOM_COUNT>
0

> <PUBCHEM_COMPONENT_COUNT>
1

> <PUBCHEM_CACTVS_TAUTO_COUNT>
6

> <PUBCHEM_COORDINATE_TYPE>
1

> <PUBCHEM_BONDANNOTATIONS>
10  12  8

$$$$
