70668172
  CDK     1228141037

 73 77  0  0  0  0  0  0  0  0999 V2000
    5.9109    0.6624    0.0000 O   0  0  0  0  0  0  0  0  0  0  0  0
    4.1790    0.6824    0.0000 O   0  0  0  0  0  0  0  0  0  0  0  0
    4.4966   -2.7610    0.0000 O   0  0  0  0  0  0  0  0  0  0  0  0
    2.4702    2.7023    0.0000 O   0  0  0  0  0  0  0  0  0  0  0  0
    7.6593    0.6278    0.0000 O   0  0  0  0  0  0  0  0  0  0  0  0
    7.6593   -3.3722    0.0000 O   0  0  0  0  0  0  0  0  0  0  0  0
    2.4967   -2.7687    0.0000 O   0  0  0  0  0  0  0  0  0  0  0  0
    9.4077    0.6624    0.0000 O   0  0  0  0  0  0  0  0  0  0  0  0
    9.4077   -3.4068    0.0000 O   0  0  0  0  0  0  0  0  0  0  0  0
   12.1052    1.2154    0.0000 O   0  0  0  0  0  0  0  0  0  0  0  0
    4.9933   -1.8930    0.0000 C   0  0  2  0  0  0  0  0  0  0  0  0
    4.9933   -0.8514    0.0000 C   0  0  0  0  0  0  0  0  0  0  0  0
    5.8994   -0.3376    0.0000 C   0  0  1  0  0  0  0  0  0  0  0  0
    5.8994   -2.4069    0.0000 C   0  0  0  0  0  0  0  0  0  0  0  0
    6.7933   -0.8722    0.0000 C   0  0  0  0  0  0  0  0  0  0  0  0
    6.7933   -1.8722    0.0000 C   0  0  0  0  0  0  0  0  0  0  0  0
    3.9933   -1.8969    0.0000 C   0  0  0  0  0  0  0  0  0  0  0  0
    5.0508    1.1724    0.0000 C   0  0  2  0  0  0  0  0  0  0  0  0
    4.2021    2.6823    0.0000 C   0  0  2  0  0  0  0  0  0  0  0  0
    5.0623    2.1723    0.0000 C   0  0  0  0  0  0  0  0  0  0  0  0
    3.3304    2.1923    0.0000 C   0  0  1  0  0  0  0  0  0  0  0  0
    3.3188    1.1924    0.0000 C   0  0  3  0  0  0  0  0  0  0  0  0
    7.6593   -0.3722    0.0000 C   0  0  0  0  0  0  0  0  0  0  0  0
    7.6593   -2.3722    0.0000 C   0  0  0  0  0  0  0  0  0  0  0  0
    3.4966   -2.7648    0.0000 C   0  0  0  0  0  0  0  0  0  0  0  0
    8.5254   -0.8722    0.0000 C   0  0  0  0  0  0  0  0  0  0  0  0
    8.5254   -1.8722    0.0000 C   0  0  0  0  0  0  0  0  0  0  0  0
    4.2137    3.6822    0.0000 C   0  0  0  0  0  0  0  0  0  0  0  0
    2.4471    0.7024    0.0000 C   0  0  0  0  0  0  0  0  0  0  0  0
    9.4193   -0.3376    0.0000 C   0  0  0  0  0  0  0  0  0  0  0  0
    9.4193   -2.4069    0.0000 C   0  0  0  0  0  0  0  0  0  0  0  0
   10.3254   -0.8514    0.0000 C   0  0  0  0  0  0  0  0  0  0  0  0
   10.3254   -1.8930    0.0000 C   0  0  0  0  0  0  0  0  0  0  0  0
   11.2565   -0.2945    0.0000 C   0  0  0  0  0  0  0  0  0  0  0  0
   11.2565   -2.4500    0.0000 C   0  0  0  0  0  0  0  0  0  0  0  0
    2.0000   -3.6366    0.0000 C   0  0  0  0  0  0  0  0  0  0  0  0
   12.2003   -0.8297    0.0000 C   0  0  0  0  0  0  0  0  0  0  0  0
   12.2003   -1.9147    0.0000 C   0  0  0  0  0  0  0  0  0  0  0  0
   11.2450    0.7055    0.0000 C   0  0  0  0  0  0  0  0  0  0  0  0
    4.7842   -0.2677    0.0000 H   0  0  0  0  0  0  0  0  0  0  0  0
    4.3825   -0.9575    0.0000 H   0  0  0  0  0  0  0  0  0  0  0  0
    5.3654   -0.0224    0.0000 H   0  0  0  0  0  0  0  0  0  0  0  0
    5.5057   -2.8859    0.0000 H   0  0  0  0  0  0  0  0  0  0  0  0
    6.3040   -2.8767    0.0000 H   0  0  0  0  0  0  0  0  0  0  0  0
    4.0986   -1.2859    0.0000 H   0  0  0  0  0  0  0  0  0  0  0  0
    3.4099   -1.6871    0.0000 H   0  0  0  0  0  0  0  0  0  0  0  0
    5.5912    1.4761    0.0000 H   0  0  0  0  0  0  0  0  0  0  0  0
    3.6688    2.9985    0.0000 H   0  0  0  0  0  0  0  0  0  0  0  0
    5.6716    2.0576    0.0000 H   0  0  0  0  0  0  0  0  0  0  0  0
    5.2811    2.7524    0.0000 H   0  0  0  0  0  0  0  0  0  0  0  0
    2.7899    1.8886    0.0000 H   0  0  0  0  0  0  0  0  0  0  0  0
    3.3116    0.5724    0.0000 H   0  0  0  0  0  0  0  0  0  0  0  0
    4.8087   -3.2967    0.0000 H   0  0  0  0  0  0  0  0  0  0  0  0
    3.3913   -3.3758    0.0000 H   0  0  0  0  0  0  0  0  0  0  0  0
    4.0801   -2.9746    0.0000 H   0  0  0  0  0  0  0  0  0  0  0  0
    4.8336    3.6750    0.0000 H   0  0  0  0  0  0  0  0  0  0  0  0
    4.2209    4.3022    0.0000 H   0  0  0  0  0  0  0  0  0  0  0  0
    3.5937    3.6894    0.0000 H   0  0  0  0  0  0  0  0  0  0  0  0
    2.1433    1.2429    0.0000 H   0  0  0  0  0  0  0  0  0  0  0  0
    1.9066    0.3987    0.0000 H   0  0  0  0  0  0  0  0  0  0  0  0
    2.7508    0.1620    0.0000 H   0  0  0  0  0  0  0  0  0  0  0  0
    2.4774    3.3223    0.0000 H   0  0  0  0  0  0  0  0  0  0  0  0
    8.1963    0.9378    0.0000 H   0  0  0  0  0  0  0  0  0  0  0  0
    7.1224   -3.6822    0.0000 H   0  0  0  0  0  0  0  0  0  0  0  0
   11.2494   -3.0699    0.0000 H   0  0  0  0  0  0  0  0  0  0  0  0
    1.4619   -3.3287    0.0000 H   0  0  0  0  0  0  0  0  0  0  0  0
    1.6921   -4.1748    0.0000 H   0  0  0  0  0  0  0  0  0  0  0  0
    2.5381   -3.9446    0.0000 H   0  0  0  0  0  0  0  0  0  0  0  0
   12.7361   -0.5176    0.0000 H   0  0  0  0  0  0  0  0  0  0  0  0
   12.7361   -2.2268    0.0000 H   0  0  0  0  0  0  0  0  0  0  0  0
   11.0262    1.2856    0.0000 H   0  0  0  0  0  0  0  0  0  0  0  0
   10.6357    0.5907    0.0000 H   0  0  0  0  0  0  0  0  0  0  0  0
   12.0980    1.8354    0.0000 H   0  0  0  0  0  0  0  0  0  0  0  0
 13  1  1  6  0  0  0 
 18  1  1  6  0  0  0 
  2 18  1  0  0  0  0 
  2 22  1  0  0  0  0 
 11  3  1  6  0  0  0 
  3 53  1  0  0  0  0 
 21  4  1  1  0  0  0 
  4 62  1  0  0  0  0 
  5 23  1  0  0  0  0 
  5 63  1  0  0  0  0 
  6 24  1  0  0  0  0 
  6 64  1  0  0  0  0 
  7 25  1  0  0  0  0 
  7 36  1  0  0  0  0 
  8 30  2  0  0  0  0 
  9 31  2  0  0  0  0 
 10 39  1  0  0  0  0 
 10 73  1  0  0  0  0 
 11 12  1  0  0  0  0 
 11 14  1  0  0  0  0 
 11 17  1  0  0  0  0 
 12 13  1  0  0  0  0 
 12 40  1  0  0  0  0 
 12 41  1  0  0  0  0 
 13 15  1  0  0  0  0 
 13 42  1  0  0  0  0 
 14 16  1  0  0  0  0 
 14 43  1  0  0  0  0 
 14 44  1  0  0  0  0 
 15 16  2  0  0  0  0 
 15 23  1  0  0  0  0 
 16 24  1  0  0  0  0 
 17 25  1  0  0  0  0 
 17 45  1  0  0  0  0 
 17 46  1  0  0  0  0 
 18 20  1  0  0  0  0 
 18 47  1  0  0  0  0 
 19 20  1  0  0  0  0 
 19 21  1  0  0  0  0 
 19 28  1  6  0  0  0 
 19 48  1  0  0  0  0 
 20 49  1  0  0  0  0 
 20 50  1  0  0  0  0 
 21 22  1  0  0  0  0 
 21 51  1  0  0  0  0 
 22 29  1  0  0  0  0 
 22 52  1  0  0  0  0 
 23 26  2  0  0  0  0 
 24 27  2  0  0  0  0 
 25 54  1  0  0  0  0 
 25 55  1  0  0  0  0 
 26 27  1  0  0  0  0 
 26 30  1  0  0  0  0 
 27 31  1  0  0  0  0 
 28 56  1  0  0  0  0 
 28 57  1  0  0  0  0 
 28 58  1  0  0  0  0 
 29 59  1  0  0  0  0 
 29 60  1  0  0  0  0 
 29 61  1  0  0  0  0 
 30 32  1  0  0  0  0 
 31 33  1  0  0  0  0 
 32 33  1  0  0  0  0 
 32 34  2  0  0  0  0 
 33 35  2  0  0  0  0 
 34 37  1  0  0  0  0 
 34 39  1  0  0  0  0 
 35 38  1  0  0  0  0 
 35 65  1  0  0  0  0 
 36 66  1  0  0  0  0 
 36 67  1  0  0  0  0 
 36 68  1  0  0  0  0 
 37 38  2  0  0  0  0 
 37 69  1  0  0  0  0 
 38 70  1  0  0  0  0 
 39 71  1  0  0  0  0 
 39 72  1  0  0  0  0 
M  END
> <cdk:Title>
70668172

> <cdk:Remark>
null

> <PUBCHEM_COMPOUND_CID>
70668172

> <PUBCHEM_COMPOUND_CANONICALIZED>
1

> <PUBCHEM_CACTVS_COMPLEXITY>
913

> <PUBCHEM_CACTVS_HBOND_ACCEPTOR>
10

> <PUBCHEM_CACTVS_HBOND_DONOR>
5

> <PUBCHEM_CACTVS_ROTATABLE_BOND>
6

> <PUBCHEM_CACTVS_SUBSKEYS>
AAADcfB4PAAAAAAAAAAAAAAAAAAAAAAAAAA0YMGCAAAAAADBQAAAGgAACAAADVSwmAMyDoAABgCIAqBSAAACAAAkIAAIiAEECMgZNzaCNRqicUAl4BEPuYfL7PzOwQADAAAYAADCAAYQADAAAAAAAAAAAA==

> <PUBCHEM_IUPAC_OPENEYE_NAME>
(7S,9R)-6,9,11-trihydroxy-7-[(2R,4R,5S)-5-hydroxy-4,6-dimethyl-tetrahydropyran-2-yl]oxy-4-(hydroxymethyl)-9-(2-methoxyethyl)-8,10-dihydro-7H-tetracene-5,12-dione

> <PUBCHEM_IUPAC_CAS_NAME>
(7S,9R)-6,9,11-trihydroxy-7-[[(2R,4R,5S)-5-hydroxy-4,6-dimethyl-2-oxanyl]oxy]-4-(hydroxymethyl)-9-(2-methoxyethyl)-8,10-dihydro-7H-tetracene-5,12-dione

> <PUBCHEM_IUPAC_NAME>
(7S,9R)-6,9,11-trihydroxy-7-[(2R,4R,5S)-5-hydroxy-4,6-dimethyloxan-2-yl]oxy-4-(hydroxymethyl)-9-(2-methoxyethyl)-8,10-dihydro-7H-tetracene-5,12-dione

> <PUBCHEM_IUPAC_SYSTEMATIC_NAME>
(7S,9R)-7-[(2R,4R,5S)-4,6-dimethyl-5-oxidanyl-oxan-2-yl]oxy-4-(hydroxymethyl)-9-(2-methoxyethyl)-6,9,11-tris(oxidanyl)-8,10-dihydro-7H-tetracene-5,12-dione

> <PUBCHEM_IUPAC_TRADITIONAL_NAME>
(7S,9R)-6,9,11-trihydroxy-7-[(2R,4R,5S)-5-hydroxy-4,6-dimethyl-tetrahydropyran-2-yl]oxy-9-(2-methoxyethyl)-4-methylol-8,10-dihydro-7H-tetracene-5,12-quinone

> <PUBCHEM_IUPAC_INCHI>
InChI=1S/C29H34O10/c1-13-9-19(38-14(2)24(13)31)39-18-11-29(36,7-8-37-3)10-17-21(18)28(35)23-22(26(17)33)25(32)16-6-4-5-15(12-30)20(16)27(23)34/h4-6,13-14,18-19,24,30-31,33,35-36H,7-12H2,1-3H3/t13-,14?,18+,19+,24+,29+/m1/s1

> <PUBCHEM_IUPAC_INCHIKEY>
YPXUGYIIFMLFME-HYWGQKDGSA-N

> <PUBCHEM_XLOGP3_AA>
2.6

> <PUBCHEM_EXACT_MASS>
542.215197

> <PUBCHEM_MOLECULAR_FORMULA>
C29H34O10

> <PUBCHEM_MOLECULAR_WEIGHT>
542.57426

> <PUBCHEM_OPENEYE_CAN_SMILES>
CC1CC(OC(C1O)C)OC2CC(CC3=C(C4=C(C(=C23)O)C(=O)C5=C(C4=O)C=CC=C5CO)O)(CCOC)O

> <PUBCHEM_OPENEYE_ISO_SMILES>
C[C@@H]1C[C@@H](OC([C@H]1O)C)O[C@H]2C[C@@](CC3=C(C4=C(C(=C23)O)C(=O)C5=C(C4=O)C=CC=C5CO)O)(CCOC)O

> <PUBCHEM_CACTVS_TPSA>
163

> <PUBCHEM_MONOISOTOPIC_WEIGHT>
542.215197

> <PUBCHEM_TOTAL_CHARGE>
0

> <PUBCHEM_HEAVY_ATOM_COUNT>
39

> <PUBCHEM_ATOM_DEF_STEREO_COUNT>
5

> <PUBCHEM_ATOM_UDEF_STEREO_COUNT>
1

> <PUBCHEM_BOND_DEF_STEREO_COUNT>
0

> <PUBCHEM_BOND_UDEF_STEREO_COUNT>
0

> <PUBCHEM_ISOTOPIC_ATOM_COUNT>
0

> <PUBCHEM_COMPONENT_COUNT>
1

> <PUBCHEM_CACTVS_TAUTO_COUNT>
27

> <PUBCHEM_COORDINATE_TYPE>
1

> <PUBCHEM_BONDANNOTATIONS>
13  1  6

$$$$
