13041372
  -OEChem-08091311542D

 34 34  0     0  0  0  0  0  0999 V2000
    9.7942    0.7500    0.0000 Cl  0  0  0  0  0  0  0  0  0  0  0  0
    4.5981    1.7500    0.0000 O   0  0  0  0  0  0  0  0  0  0  0  0
    2.8660    0.7500    0.0000 O   0  0  0  0  0  0  0  0  0  0  0  0
    2.8660   -1.2500    0.0000 O   0  0  0  0  0  0  0  0  0  0  0  0
    8.0622    1.7500    0.0000 O   0  0  0  0  0  0  0  0  0  0  0  0
    7.1962    0.2500    0.0000 N   0  0  0  0  0  0  0  0  0  0  0  0
    5.4641    0.2500    0.0000 C   0  0  0  0  0  0  0  0  0  0  0  0
    6.3301    0.7500    0.0000 C   0  0  0  0  0  0  0  0  0  0  0  0
    4.5981    0.7500    0.0000 C   0  0  0  0  0  0  0  0  0  0  0  0
    3.7320    0.2500    0.0000 C   0  0  0  0  0  0  0  0  0  0  0  0
    5.4641   -0.7500    0.0000 C   0  0  0  0  0  0  0  0  0  0  0  0
    3.7320   -0.7500    0.0000 C   0  0  0  0  0  0  0  0  0  0  0  0
    4.5981   -1.2500    0.0000 C   0  0  0  0  0  0  0  0  0  0  0  0
    8.0622    0.7500    0.0000 C   0  0  0  0  0  0  0  0  0  0  0  0
    3.7320    2.2500    0.0000 C   0  0  0  0  0  0  0  0  0  0  0  0
    2.0000    0.2500    0.0000 C   0  0  0  0  0  0  0  0  0  0  0  0
    8.9282    0.2500    0.0000 C   0  0  0  0  0  0  0  0  0  0  0  0
    2.8660   -2.2500    0.0000 C   0  0  0  0  0  0  0  0  0  0  0  0
    6.7287    1.2250    0.0000 H   0  0  0  0  0  0  0  0  0  0  0  0
    5.9316    1.2250    0.0000 H   0  0  0  0  0  0  0  0  0  0  0  0
    6.0010   -1.0600    0.0000 H   0  0  0  0  0  0  0  0  0  0  0  0
    4.5981   -1.8700    0.0000 H   0  0  0  0  0  0  0  0  0  0  0  0
    7.1962   -0.3700    0.0000 H   0  0  0  0  0  0  0  0  0  0  0  0
    4.0420    2.7869    0.0000 H   0  0  0  0  0  0  0  0  0  0  0  0
    3.1951    2.5600    0.0000 H   0  0  0  0  0  0  0  0  0  0  0  0
    3.4220    1.7131    0.0000 H   0  0  0  0  0  0  0  0  0  0  0  0
    1.6900    0.7869    0.0000 H   0  0  0  0  0  0  0  0  0  0  0  0
    1.4631   -0.0600    0.0000 H   0  0  0  0  0  0  0  0  0  0  0  0
    2.3100   -0.2869    0.0000 H   0  0  0  0  0  0  0  0  0  0  0  0
    8.5297   -0.2249    0.0000 H   0  0  0  0  0  0  0  0  0  0  0  0
    9.3267   -0.2249    0.0000 H   0  0  0  0  0  0  0  0  0  0  0  0
    2.2460   -2.2500    0.0000 H   0  0  0  0  0  0  0  0  0  0  0  0
    2.8660   -2.8700    0.0000 H   0  0  0  0  0  0  0  0  0  0  0  0
    3.4860   -2.2500    0.0000 H   0  0  0  0  0  0  0  0  0  0  0  0
  1 17  1  0  0  0  0
  2  9  1  0  0  0  0
  2 15  1  0  0  0  0
  3 10  1  0  0  0  0
  3 16  1  0  0  0  0
  4 12  1  0  0  0  0
  4 18  1  0  0  0  0
  5 14  2  0  0  0  0
  6  8  1  0  0  0  0
  6 14  1  0  0  0  0
  6 23  1  0  0  0  0
  7  8  1  0  0  0  0
  7  9  2  0  0  0  0
  7 11  1  0  0  0  0
  8 19  1  0  0  0  0
  8 20  1  0  0  0  0
  9 10  1  0  0  0  0
 10 12  2  0  0  0  0
 11 13  2  0  0  0  0
 11 21  1  0  0  0  0
 12 13  1  0  0  0  0
 13 22  1  0  0  0  0
 14 17  1  0  0  0  0
 15 24  1  0  0  0  0
 15 25  1  0  0  0  0
 15 26  1  0  0  0  0
 16 27  1  0  0  0  0
 16 28  1  0  0  0  0
 16 29  1  0  0  0  0
 17 30  1  0  0  0  0
 17 31  1  0  0  0  0
 18 32  1  0  0  0  0
 18 33  1  0  0  0  0
 18 34  1  0  0  0  0
M  END
> <PUBCHEM_COMPOUND_CID>
13041372

> <PUBCHEM_COMPOUND_CANONICALIZED>
1

> <PUBCHEM_CACTVS_COMPLEXITY>
265

> <PUBCHEM_CACTVS_HBOND_ACCEPTOR>
4

> <PUBCHEM_CACTVS_HBOND_DONOR>
1

> <PUBCHEM_CACTVS_ROTATABLE_BOND>
6

> <PUBCHEM_CACTVS_SUBSKEYS>
AAADceByOAAEAAAAAAAAAAAAAAAAAAAAAAAwAAAAAAAAAAABAAAAHgIQAAAADAfBmEYyBoLABACIAiFSEACCCAAgIAAIiIAOjIhNJyKEsRvEMCpn1hWKqAew8D4OIAABCAAIQABAAAIQABCAAAAAAAAAAA==

> <PUBCHEM_IUPAC_OPENEYE_NAME>
2-chloro-N-[(2,3,4-trimethoxyphenyl)methyl]acetamide

> <PUBCHEM_IUPAC_CAS_NAME>
2-chloro-N-[(2,3,4-trimethoxyphenyl)methyl]acetamide

> <PUBCHEM_IUPAC_NAME>
2-chloro-N-[(2,3,4-trimethoxyphenyl)methyl]acetamide

> <PUBCHEM_IUPAC_SYSTEMATIC_NAME>
2-chloranyl-N-[(2,3,4-trimethoxyphenyl)methyl]ethanamide

> <PUBCHEM_IUPAC_TRADITIONAL_NAME>
2-chloro-N-(2,3,4-trimethoxybenzyl)acetamide

> <PUBCHEM_IUPAC_INCHI>
InChI=1S/C12H16ClNO4/c1-16-9-5-4-8(7-14-10(15)6-13)11(17-2)12(9)18-3/h4-5H,6-7H2,1-3H3,(H,14,15)

> <PUBCHEM_IUPAC_INCHIKEY>
ZKLSXBGIHOHSMA-UHFFFAOYSA-N

> <PUBCHEM_XLOGP3_AA>
1.6

> <PUBCHEM_EXACT_MASS>
273.076786

> <PUBCHEM_MOLECULAR_FORMULA>
C12H16ClNO4

> <PUBCHEM_MOLECULAR_WEIGHT>
273.71274

> <PUBCHEM_OPENEYE_CAN_SMILES>
COC1=C(C(=C(C=C1)CNC(=O)CCl)OC)OC

> <PUBCHEM_OPENEYE_ISO_SMILES>
COC1=C(C(=C(C=C1)CNC(=O)CCl)OC)OC

> <PUBCHEM_CACTVS_TPSA>
56.8

> <PUBCHEM_MONOISOTOPIC_WEIGHT>
273.076786

> <PUBCHEM_TOTAL_CHARGE>
0

> <PUBCHEM_HEAVY_ATOM_COUNT>
18

> <PUBCHEM_ATOM_DEF_STEREO_COUNT>
0

> <PUBCHEM_ATOM_UDEF_STEREO_COUNT>
0

> <PUBCHEM_BOND_DEF_STEREO_COUNT>
0

> <PUBCHEM_BOND_UDEF_STEREO_COUNT>
0

> <PUBCHEM_ISOTOPIC_ATOM_COUNT>
0

> <PUBCHEM_COMPONENT_COUNT>
1

> <PUBCHEM_CACTVS_TAUTO_COUNT>
2

> <PUBCHEM_COORDINATE_TYPE>
1
5
255

> <PUBCHEM_BONDANNOTATIONS>
10  12  8
11  13  8
12  13  8
7  11  8
7  9  8
9  10  8

$$$$
58685014
  -OEChem-11301218162D

 34 34  0     0  0  0  0  0  0999 V2000
    4.5981    0.5950    0.0000 O   0  0  0  0  0  0  0  0  0  0  0  0
    5.4641   -0.9050    0.0000 O   0  0  0  0  0  0  0  0  0  0  0  0
    3.7320   -0.9050    0.0000 N   0  0  0  0  0  0  0  0  0  0  0  0
    5.4641    1.0950    0.0000 N   0  0  0  0  0  0  0  0  0  0  0  0
    6.3301    3.5950    0.0000 N   0  0  0  0  0  0  0  0  0  0  0  0
    3.7320   -1.9050    0.0000 C   0  0  0  0  0  0  0  0  0  0  0  0
    4.5981   -2.4050    0.0000 C   0  0  0  0  0  0  0  0  0  0  0  0
    2.8660   -2.4050    0.0000 C   0  0  0  0  0  0  0  0  0  0  0  0
    4.5981   -3.4050    0.0000 C   0  0  0  0  0  0  0  0  0  0  0  0
    2.8660   -3.4050    0.0000 C   0  0  0  0  0  0  0  0  0  0  0  0
    3.7320   -3.9050    0.0000 C   0  0  0  0  0  0  0  0  0  0  0  0
    5.4641   -1.9050    0.0000 C   0  0  0  0  0  0  0  0  0  0  0  0
    2.0000   -1.9050    0.0000 C   0  0  0  0  0  0  0  0  0  0  0  0
    4.5981   -0.4050    0.0000 C   0  0  0  0  0  0  0  0  0  0  0  0
    5.4641    2.0950    0.0000 C   0  0  0  0  0  0  0  0  0  0  0  0
    6.3301    2.5950    0.0000 C   0  0  0  0  0  0  0  0  0  0  0  0
    4.5981    2.5950    0.0000 C   0  0  0  0  0  0  0  0  0  0  0  0
    5.1350   -3.7150    0.0000 H   0  0  0  0  0  0  0  0  0  0  0  0
    2.3291   -3.7150    0.0000 H   0  0  0  0  0  0  0  0  0  0  0  0
    3.7320   -4.5250    0.0000 H   0  0  0  0  0  0  0  0  0  0  0  0
    5.7741   -2.4419    0.0000 H   0  0  0  0  0  0  0  0  0  0  0  0
    6.0010   -1.5950    0.0000 H   0  0  0  0  0  0  0  0  0  0  0  0
    5.1541   -1.3681    0.0000 H   0  0  0  0  0  0  0  0  0  0  0  0
    2.3100   -1.3681    0.0000 H   0  0  0  0  0  0  0  0  0  0  0  0
    1.4631   -1.5950    0.0000 H   0  0  0  0  0  0  0  0  0  0  0  0
    1.6900   -2.4419    0.0000 H   0  0  0  0  0  0  0  0  0  0  0  0
    3.1951   -0.5950    0.0000 H   0  0  0  0  0  0  0  0  0  0  0  0
    6.5422    2.0124    0.0000 H   0  0  0  0  0  0  0  0  0  0  0  0
    6.9407    2.7027    0.0000 H   0  0  0  0  0  0  0  0  0  0  0  0
    4.9081    3.1319    0.0000 H   0  0  0  0  0  0  0  0  0  0  0  0
    4.0611    2.9050    0.0000 H   0  0  0  0  0  0  0  0  0  0  0  0
    4.2881    2.0581    0.0000 H   0  0  0  0  0  0  0  0  0  0  0  0
    6.8671    3.9050    0.0000 H   0  0  0  0  0  0  0  0  0  0  0  0
    5.7932    3.9050    0.0000 H   0  0  0  0  0  0  0  0  0  0  0  0
  1  4  1  0  0  0  0
  1 14  1  0  0  0  0
  2 14  2  0  0  0  0
  3  6  1  0  0  0  0
  3 14  1  0  0  0  0
  3 27  1  0  0  0  0
  4 15  2  0  0  0  0
  5 16  1  0  0  0  0
  5 33  1  0  0  0  0
  5 34  1  0  0  0  0
  6  7  2  0  0  0  0
  6  8  1  0  0  0  0
  7  9  1  0  0  0  0
  7 12  1  0  0  0  0
  8 10  2  0  0  0  0
  8 13  1  0  0  0  0
  9 11  2  0  0  0  0
  9 18  1  0  0  0  0
 10 11  1  0  0  0  0
 10 19  1  0  0  0  0
 11 20  1  0  0  0  0
 12 21  1  0  0  0  0
 12 22  1  0  0  0  0
 12 23  1  0  0  0  0
 13 24  1  0  0  0  0
 13 25  1  0  0  0  0
 13 26  1  0  0  0  0
 15 16  1  0  0  0  0
 15 17  1  0  0  0  0
 16 28  1  0  0  0  0
 16 29  1  0  0  0  0
 17 30  1  0  0  0  0
 17 31  1  0  0  0  0
 17 32  1  0  0  0  0
M  END
> <PUBCHEM_COMPOUND_CID>
58685014

> <PUBCHEM_COMPOUND_CANONICALIZED>
1

> <PUBCHEM_CACTVS_COMPLEXITY>
282

> <PUBCHEM_CACTVS_HBOND_ACCEPTOR>
4

> <PUBCHEM_CACTVS_HBOND_DONOR>
2

> <PUBCHEM_CACTVS_ROTATABLE_BOND>
4

> <PUBCHEM_CACTVS_SUBSKEYS>
AAADceBzMAAAAAAAAAAAAAAAAAAAAAAAAAAwAAAAAAAAAAABAAAAHgAUAAAADAjBGAQyyILQAACoAyRiWACCAAAhAAAIiIAQRIkIICLAkZGEIAhghABIyAcQgEAOAAACAAACAAAAAAQAAAQAAAAAAAAAAA==

> <PUBCHEM_IUPAC_OPENEYE_NAME>
[(E)-(2-amino-1-methyl-ethylidene)amino] N-(2,6-dimethylphenyl)carbamate

> <PUBCHEM_IUPAC_CAS_NAME>
N-(2,6-dimethylphenyl)carbamic acid [(E)-1-aminopropan-2-ylideneamino] ester

> <PUBCHEM_IUPAC_NAME>
[(E)-1-aminopropan-2-ylideneamino] N-(2,6-dimethylphenyl)carbamate

> <PUBCHEM_IUPAC_SYSTEMATIC_NAME>
[(E)-1-azanylpropan-2-ylideneamino] N-(2,6-dimethylphenyl)carbamate

> <PUBCHEM_IUPAC_TRADITIONAL_NAME>
N-(2,6-dimethylphenyl)carbamic acid [(E)-(2-amino-1-methyl-ethylidene)amino] ester

> <PUBCHEM_IUPAC_INCHI>
InChI=1S/C12H17N3O2/c1-8-5-4-6-9(2)11(8)14-12(16)17-15-10(3)7-13/h4-6H,7,13H2,1-3H3,(H,14,16)/b15-10+

> <PUBCHEM_IUPAC_INCHIKEY>
DCZBVMOPDRPDMK-XNTDXEJSSA-N

> <PUBCHEM_XLOGP3_AA>
1.5

> <PUBCHEM_EXACT_MASS>
235.132077

> <PUBCHEM_MOLECULAR_FORMULA>
C12H17N3O2

> <PUBCHEM_MOLECULAR_WEIGHT>
235.28228

> <PUBCHEM_OPENEYE_CAN_SMILES>
CC1=C(C(=CC=C1)C)NC(=O)ON=C(C)CN

> <PUBCHEM_OPENEYE_ISO_SMILES>
CC1=C(C(=CC=C1)C)NC(=O)O/N=C(\C)/CN

> <PUBCHEM_CACTVS_TPSA>
76.7

> <PUBCHEM_MONOISOTOPIC_WEIGHT>
235.132077

> <PUBCHEM_TOTAL_CHARGE>
0

> <PUBCHEM_HEAVY_ATOM_COUNT>
17

> <PUBCHEM_ATOM_DEF_STEREO_COUNT>
0

> <PUBCHEM_ATOM_UDEF_STEREO_COUNT>
0

> <PUBCHEM_BOND_DEF_STEREO_COUNT>
1

> <PUBCHEM_BOND_UDEF_STEREO_COUNT>
0

> <PUBCHEM_ISOTOPIC_ATOM_COUNT>
0

> <PUBCHEM_COMPONENT_COUNT>
1

> <PUBCHEM_CACTVS_TAUTO_COUNT>
8

> <PUBCHEM_COORDINATE_TYPE>
1
5
255

> <PUBCHEM_BONDANNOTATIONS>
10  11  8
6  7  8
6  8  8
7  9  8
8  10  8
9  11  8

$$$$
55065205
  -OEChem-11301218082D

 34 34  0     0  0  0  0  0  0999 V2000
    4.5981    3.0950    0.0000 S   0  0  0  0  0  0  0  0  0  0  0  0
    4.5981   -0.9050    0.0000 O   0  0  0  0  0  0  0  0  0  0  0  0
    5.5981    3.0950    0.0000 O   0  0  0  0  0  0  0  0  0  0  0  0
    3.5981    3.0950    0.0000 O   0  0  0  0  0  0  0  0  0  0  0  0
    2.0000    0.5950    0.0000 O   0  5  0  0  0  0  0  0  0  0  0  0
    2.8660   -0.9050    0.0000 O   0  0  0  0  0  0  0  0  0  0  0  0
    6.3301   -2.9050    0.0000 N   0  0  0  0  0  0  0  0  0  0  0  0
    2.8660    0.0950    0.0000 N   0  3  0  0  0  0  0  0  0  0  0  0
    4.5981    4.0950    0.0000 N   0  0  0  0  0  0  0  0  0  0  0  0
    5.4641   -2.4050    0.0000 C   0  0  0  0  0  0  0  0  0  0  0  0
    5.4641   -1.4050    0.0000 C   0  0  0  0  0  0  0  0  0  0  0  0
    4.5981    0.0950    0.0000 C   0  0  0  0  0  0  0  0  0  0  0  0
    4.5981    2.0950    0.0000 C   0  0  0  0  0  0  0  0  0  0  0  0
    3.7320    0.5950    0.0000 C   0  0  0  0  0  0  0  0  0  0  0  0
    3.7320    1.5950    0.0000 C   0  0  0  0  0  0  0  0  0  0  0  0
    5.4641    0.5950    0.0000 C   0  0  0  0  0  0  0  0  0  0  0  0
    5.4641    1.5950    0.0000 C   0  0  0  0  0  0  0  0  0  0  0  0
    6.3301   -3.9050    0.0000 C   0  0  0  0  0  0  0  0  0  0  0  0
    7.1962   -4.4050    0.0000 C   0  0  0  0  0  0  0  0  0  0  0  0
    4.8535   -2.2973    0.0000 H   0  0  0  0  0  0  0  0  0  0  0  0
    5.2520   -2.9876    0.0000 H   0  0  0  0  0  0  0  0  0  0  0  0
    6.0747   -1.5127    0.0000 H   0  0  0  0  0  0  0  0  0  0  0  0
    5.6762   -0.8224    0.0000 H   0  0  0  0  0  0  0  0  0  0  0  0
    3.1951    1.9050    0.0000 H   0  0  0  0  0  0  0  0  0  0  0  0
    6.0010    0.2850    0.0000 H   0  0  0  0  0  0  0  0  0  0  0  0
    6.0010    1.9050    0.0000 H   0  0  0  0  0  0  0  0  0  0  0  0
    6.8671   -2.5950    0.0000 H   0  0  0  0  0  0  0  0  0  0  0  0
    5.7196   -3.7973    0.0000 H   0  0  0  0  0  0  0  0  0  0  0  0
    6.1181   -4.4876    0.0000 H   0  0  0  0  0  0  0  0  0  0  0  0
    6.8862   -4.9419    0.0000 H   0  0  0  0  0  0  0  0  0  0  0  0
    7.7331   -4.7150    0.0000 H   0  0  0  0  0  0  0  0  0  0  0  0
    7.5062   -3.8681    0.0000 H   0  0  0  0  0  0  0  0  0  0  0  0
    5.1350    4.4050    0.0000 H   0  0  0  0  0  0  0  0  0  0  0  0
    4.0611    4.4050    0.0000 H   0  0  0  0  0  0  0  0  0  0  0  0
  1  3  2  0  0  0  0
  1  4  2  0  0  0  0
  1  9  1  0  0  0  0
  1 13  1  0  0  0  0
  2 11  1  0  0  0  0
  2 12  1  0  0  0  0
  5  8  1  0  0  0  0
  6  8  2  0  0  0  0
  7 10  1  0  0  0  0
  7 18  1  0  0  0  0
  7 27  1  0  0  0  0
  8 14  1  0  0  0  0
  9 33  1  0  0  0  0
  9 34  1  0  0  0  0
 10 11  1  0  0  0  0
 10 20  1  0  0  0  0
 10 21  1  0  0  0  0
 11 22  1  0  0  0  0
 11 23  1  0  0  0  0
 12 14  2  0  0  0  0
 12 16  1  0  0  0  0
 13 15  2  0  0  0  0
 13 17  1  0  0  0  0
 14 15  1  0  0  0  0
 15 24  1  0  0  0  0
 16 17  2  0  0  0  0
 16 25  1  0  0  0  0
 17 26  1  0  0  0  0
 18 19  1  0  0  0  0
 18 28  1  0  0  0  0
 18 29  1  0  0  0  0
 19 30  1  0  0  0  0
 19 31  1  0  0  0  0
 19 32  1  0  0  0  0
M  CHG  2   5  -1   8   1
M  END
> <PUBCHEM_COMPOUND_CID>
55065205

> <PUBCHEM_COMPOUND_CANONICALIZED>
1

> <PUBCHEM_CACTVS_COMPLEXITY>
389

> <PUBCHEM_CACTVS_HBOND_ACCEPTOR>
7

> <PUBCHEM_CACTVS_HBOND_DONOR>
2

> <PUBCHEM_CACTVS_ROTATABLE_BOND>
6

> <PUBCHEM_CACTVS_SUBSKEYS>
AAADccBzOABAAAAAAAAAAAAAAAAAAAAAAAAwAAAAAAAAAAABAAAAHgQUQAAACAzh0AYyx4LQRAKBACRCQ3DCCBAgIgAoiJgPbIoOJiKEsZuDOCTk0FGY6AeQQAAAAIAAACAAEAABAAAAQAAgAAAAAAAAAA==

> <PUBCHEM_IUPAC_OPENEYE_NAME>
4-[2-(ethylamino)ethoxy]-3-nitro-benzenesulfonamide

> <PUBCHEM_IUPAC_CAS_NAME>
4-[2-(ethylamino)ethoxy]-3-nitrobenzenesulfonamide

> <PUBCHEM_IUPAC_NAME>
4-[2-(ethylamino)ethoxy]-3-nitrobenzenesulfonamide

> <PUBCHEM_IUPAC_SYSTEMATIC_NAME>
4-[2-(ethylamino)ethoxy]-3-nitro-benzenesulfonamide

> <PUBCHEM_IUPAC_TRADITIONAL_NAME>
4-[2-(ethylamino)ethoxy]-3-nitro-benzenesulfonamide

> <PUBCHEM_IUPAC_INCHI>
InChI=1S/C10H15N3O5S/c1-2-12-5-6-18-10-4-3-8(19(11,16)17)7-9(10)13(14)15/h3-4,7,12H,2,5-6H2,1H3,(H2,11,16,17)

> <PUBCHEM_IUPAC_INCHIKEY>
DYPXBGXUJVSXLM-UHFFFAOYSA-N

> <PUBCHEM_XLOGP3>
0.6

> <PUBCHEM_EXACT_MASS>
289.073242

> <PUBCHEM_MOLECULAR_FORMULA>
C10H15N3O5S

> <PUBCHEM_MOLECULAR_WEIGHT>
289.3082

> <PUBCHEM_OPENEYE_CAN_SMILES>
CCNCCOC1=C(C=C(C=C1)S(=O)(=O)N)[N+](=O)[O-]

> <PUBCHEM_OPENEYE_ISO_SMILES>
CCNCCOC1=C(C=C(C=C1)S(=O)(=O)N)[N+](=O)[O-]

> <PUBCHEM_CACTVS_TPSA>
136

> <PUBCHEM_MONOISOTOPIC_WEIGHT>
289.073242

> <PUBCHEM_TOTAL_CHARGE>
0

> <PUBCHEM_HEAVY_ATOM_COUNT>
19

> <PUBCHEM_ATOM_DEF_STEREO_COUNT>
0

> <PUBCHEM_ATOM_UDEF_STEREO_COUNT>
0

> <PUBCHEM_BOND_DEF_STEREO_COUNT>
0

> <PUBCHEM_BOND_UDEF_STEREO_COUNT>
0

> <PUBCHEM_ISOTOPIC_ATOM_COUNT>
0

> <PUBCHEM_COMPONENT_COUNT>
1

> <PUBCHEM_CACTVS_TAUTO_COUNT>
1

> <PUBCHEM_COORDINATE_TYPE>
1
5
255

> <PUBCHEM_BONDANNOTATIONS>
12  14  8
12  16  8
13  15  8
13  17  8
14  15  8
16  17  8

$$$$
