29029
  -OEChem-03171520202D

 60 61  0     1  0  0  0  0  0999 V2000
    3.4030    1.8232    0.0000 Cl  0  0  0  0  0  0  0  0  0  0  0  0
    6.0010   -2.6768    0.0000 S   0  0  0  0  0  0  0  0  0  0  0  0
    5.1350   -1.1768    0.0000 O   0  0  0  0  0  0  0  0  0  0  0  0
    2.5369   -0.6768    0.0000 O   0  0  0  0  0  0  0  0  0  0  0  0
    2.5369   -2.6768    0.0000 O   0  0  0  0  0  0  0  0  0  0  0  0
    4.2690   -3.6768    0.0000 O   0  0  0  0  0  0  0  0  0  0  0  0
    4.2690    2.3232    0.0000 O   0  0  0  0  0  0  0  0  0  0  0  0
    6.1056    3.3177    0.0000 N   0  0  3  0  0  0  0  0  0  0  0  0
    5.1350    0.8232    0.0000 N   0  0  0  0  0  0  0  0  0  0  0  0
    7.5837    2.6596    0.0000 C   0  0  2  0  0  0  0  0  0  0  0  0
    6.0010    2.3232    0.0000 C   0  0  1  0  0  0  0  0  0  0  0  0
    6.9146    1.9164    0.0000 C   0  0  0  0  0  0  0  0  0  0  0  0
    7.0837    3.5256    0.0000 C   0  0  0  0  0  0  0  0  0  0  0  0
    4.2690   -0.6768    0.0000 C   0  0  2  0  0  0  0  0  0  0  0  0
    4.2690    0.3232    0.0000 C   0  0  3  0  0  0  0  0  0  0  0  0
    3.4030   -1.1768    0.0000 C   0  0  1  0  0  0  0  0  0  0  0  0
    8.5782    2.5550    0.0000 C   0  0  0  0  0  0  0  0  0  0  0  0
    3.4030   -2.1768    0.0000 C   0  0  1  0  0  0  0  0  0  0  0  0
    5.1350    1.8232    0.0000 C   0  0  0  0  0  0  0  0  0  0  0  0
    4.2690   -2.6768    0.0000 C   0  0  2  0  0  0  0  0  0  0  0  0
    5.1350   -2.1768    0.0000 C   0  0  1  0  0  0  0  0  0  0  0  0
    3.4030    0.8232    0.0000 C   0  0  3  0  0  0  0  0  0  0  0  0
    5.3624    3.9868    0.0000 C   0  0  0  0  0  0  0  0  0  0  0  0
    9.1660    3.3641    0.0000 C   0  0  0  0  0  0  0  0  0  0  0  0
    2.5369    0.3232    0.0000 C   0  0  0  0  0  0  0  0  0  0  0  0
   10.1605    3.2595    0.0000 C   0  0  0  0  0  0  0  0  0  0  0  0
    6.8671   -2.1768    0.0000 C   0  0  0  0  0  0  0  0  0  0  0  0
    7.8059    2.0808    0.0000 H   0  0  0  0  0  0  0  0  0  0  0  0
    5.4811    2.6608    0.0000 H   0  0  0  0  0  0  0  0  0  0  0  0
    6.6046    1.3795    0.0000 H   0  0  0  0  0  0  0  0  0  0  0  0
    7.4162    1.5520    0.0000 H   0  0  0  0  0  0  0  0  0  0  0  0
    7.6501    3.7778    0.0000 H   0  0  0  0  0  0  0  0  0  0  0  0
    6.8921    4.1153    0.0000 H   0  0  0  0  0  0  0  0  0  0  0  0
    4.8059   -0.3668    0.0000 H   0  0  0  0  0  0  0  0  0  0  0  0
    4.2690    1.1732    0.0000 H   0  0  0  0  0  0  0  0  0  0  0  0
    3.4030   -0.5568    0.0000 H   0  0  0  0  0  0  0  0  0  0  0  0
    8.4073    1.9591    0.0000 H   0  0  0  0  0  0  0  0  0  0  0  0
    9.1355    2.2833    0.0000 H   0  0  0  0  0  0  0  0  0  0  0  0
    3.4030   -2.7968    0.0000 H   0  0  0  0  0  0  0  0  0  0  0  0
    4.8059   -2.9868    0.0000 H   0  0  0  0  0  0  0  0  0  0  0  0
    5.6720    0.5132    0.0000 H   0  0  0  0  0  0  0  0  0  0  0  0
    5.1350   -2.7968    0.0000 H   0  0  0  0  0  0  0  0  0  0  0  0
    4.1391    1.2482    0.0000 H   0  0  0  0  0  0  0  0  0  0  0  0
    5.7773    4.4476    0.0000 H   0  0  0  0  0  0  0  0  0  0  0  0
    4.9017    4.4017    0.0000 H   0  0  0  0  0  0  0  0  0  0  0  0
    4.9476    3.5261    0.0000 H   0  0  0  0  0  0  0  0  0  0  0  0
    9.3369    3.9600    0.0000 H   0  0  0  0  0  0  0  0  0  0  0  0
    8.6088    3.6359    0.0000 H   0  0  0  0  0  0  0  0  0  0  0  0
    2.2269    0.8601    0.0000 H   0  0  0  0  0  0  0  0  0  0  0  0
    2.0000    0.0132    0.0000 H   0  0  0  0  0  0  0  0  0  0  0  0
    2.8469   -0.2138    0.0000 H   0  0  0  0  0  0  0  0  0  0  0  0
    2.0000   -0.9868    0.0000 H   0  0  0  0  0  0  0  0  0  0  0  0
    2.5369   -3.2968    0.0000 H   0  0  0  0  0  0  0  0  0  0  0  0
   10.0957    2.6429    0.0000 H   0  0  0  0  0  0  0  0  0  0  0  0
   10.7771    3.1947    0.0000 H   0  0  0  0  0  0  0  0  0  0  0  0
   10.2254    3.8762    0.0000 H   0  0  0  0  0  0  0  0  0  0  0  0
    4.8059   -3.9868    0.0000 H   0  0  0  0  0  0  0  0  0  0  0  0
    7.1771   -2.7138    0.0000 H   0  0  0  0  0  0  0  0  0  0  0  0
    7.4040   -1.8668    0.0000 H   0  0  0  0  0  0  0  0  0  0  0  0
    6.5571   -1.6399    0.0000 H   0  0  0  0  0  0  0  0  0  0  0  0
  1 22  1  0  0  0  0
 21  2  1  6  0  0  0
  2 27  1  0  0  0  0
  3 14  1  0  0  0  0
  3 21  1  0  0  0  0
 16  4  1  1  0  0  0
  4 52  1  0  0  0  0
 18  5  1  1  0  0  0
  5 53  1  0  0  0  0
 20  6  1  6  0  0  0
  6 57  1  0  0  0  0
  7 19  2  0  0  0  0
  8 11  1  0  0  0  0
  8 13  1  0  0  0  0
  8 23  1  0  0  0  0
  9 15  1  0  0  0  0
  9 19  1  0  0  0  0
  9 41  1  0  0  0  0
 10 12  1  0  0  0  0
 10 13  1  0  0  0  0
 10 17  1  6  0  0  0
 10 28  1  0  0  0  0
 11 12  1  0  0  0  0
 11 19  1  1  0  0  0
 11 29  1  0  0  0  0
 12 30  1  0  0  0  0
 12 31  1  0  0  0  0
 13 32  1  0  0  0  0
 13 33  1  0  0  0  0
 14 15  1  1  0  0  0
 14 16  1  0  0  0  0
 14 34  1  0  0  0  0
 15 22  1  0  0  0  0
 15 35  1  0  0  0  0
 16 18  1  0  0  0  0
 16 36  1  0  0  0  0
 17 24  1  0  0  0  0
 17 37  1  0  0  0  0
 17 38  1  0  0  0  0
 18 20  1  0  0  0  0
 18 39  1  0  0  0  0
 20 21  1  0  0  0  0
 20 40  1  0  0  0  0
 21 42  1  0  0  0  0
 22 25  1  0  0  0  0
 22 43  1  0  0  0  0
 23 44  1  0  0  0  0
 23 45  1  0  0  0  0
 23 46  1  0  0  0  0
 24 26  1  0  0  0  0
 24 47  1  0  0  0  0
 24 48  1  0  0  0  0
 25 49  1  0  0  0  0
 25 50  1  0  0  0  0
 25 51  1  0  0  0  0
 26 54  1  0  0  0  0
 26 55  1  0  0  0  0
 26 56  1  0  0  0  0
 27 58  1  0  0  0  0
 27 59  1  0  0  0  0
 27 60  1  0  0  0  0
M  END
> <PUBCHEM_COMPOUND_CID>
29029

> <PUBCHEM_COMPOUND_CANONICALIZED>
1

> <PUBCHEM_CACTVS_COMPLEXITY>
502

> <PUBCHEM_CACTVS_HBOND_ACCEPTOR>
7

> <PUBCHEM_CACTVS_HBOND_DONOR>
4

> <PUBCHEM_CACTVS_ROTATABLE_BOND>
7

> <PUBCHEM_CACTVS_SUBSKEYS>
AAADcfB7OABEAAAAAAAAAAAAAAAAAWAAAAAkAAAAAAAAAAAAAAAAHgYQCAAADT/lwEaCAAPABggIAAEQEAAAAAAAABAAAIGIAgADUBIhgCBXQAAHFgCTAAH42aOOAAAAAAAAAAAAAAAAAAAAAAAAAAAAAA==

> <PUBCHEM_IUPAC_OPENEYE_NAME>
(2S,4R)-N-[2-chloro-1-[(2R,3R,4S,5R,6R)-3,4,5-trihydroxy-6-methylsulfanyl-tetrahydropyran-2-yl]propyl]-1-methyl-4-propyl-pyrrolidine-2-carboxamide

> <PUBCHEM_IUPAC_CAS_NAME>
(2S,4R)-N-[2-chloro-1-[(2R,3R,4S,5R,6R)-3,4,5-trihydroxy-6-(methylthio)-2-oxanyl]propyl]-1-methyl-4-propyl-2-pyrrolidinecarboxamide

> <PUBCHEM_IUPAC_NAME>
(2S,4R)-N-[2-chloro-1-[(2R,3R,4S,5R,6R)-3,4,5-trihydroxy-6-methylsulfanyloxan-2-yl]propyl]-1-methyl-4-propylpyrrolidine-2-carboxamide

> <PUBCHEM_IUPAC_SYSTEMATIC_NAME>
(2S,4R)-N-[2-chloranyl-1-[(2R,3R,4S,5R,6R)-6-methylsulfanyl-3,4,5-tris(oxidanyl)oxan-2-yl]propyl]-1-methyl-4-propyl-pyrrolidine-2-carboxamide

> <PUBCHEM_IUPAC_TRADITIONAL_NAME>
(2S,4R)-N-[2-chloro-1-[(2R,3R,4S,5R,6R)-3,4,5-trihydroxy-6-(methylthio)tetrahydropyran-2-yl]propyl]-1-methyl-4-propyl-pyrrolidine-2-carboxamide

> <PUBCHEM_IUPAC_INCHI>
InChI=1S/C18H33ClN2O5S/c1-5-6-10-7-11(21(3)8-10)17(25)20-12(9(2)19)16-14(23)13(22)15(24)18(26-16)27-4/h9-16,18,22-24H,5-8H2,1-4H3,(H,20,25)/t9?,10-,11+,12?,13+,14-,15-,16-,18-/m1/s1

> <PUBCHEM_IUPAC_INCHIKEY>
KDLRVYVGXIQJDK-NOWPCOIGSA-N

> <PUBCHEM_XLOGP3>
2.2

> <PUBCHEM_EXACT_MASS>
424.179871

> <PUBCHEM_MOLECULAR_FORMULA>
C18H33ClN2O5S

> <PUBCHEM_MOLECULAR_WEIGHT>
424.98302

> <PUBCHEM_OPENEYE_CAN_SMILES>
CCCC1CC(N(C1)C)C(=O)NC(C2C(C(C(C(O2)SC)O)O)O)C(C)Cl

> <PUBCHEM_OPENEYE_ISO_SMILES>
CCC[C@@H]1C[C@H](N(C1)C)C(=O)NC([C@@H]2[C@@H]([C@@H]([C@H]([C@H](O2)SC)O)O)O)C(C)Cl

> <PUBCHEM_CACTVS_TPSA>
128

> <PUBCHEM_MONOISOTOPIC_WEIGHT>
424.179871

> <PUBCHEM_TOTAL_CHARGE>
0

> <PUBCHEM_HEAVY_ATOM_COUNT>
27

> <PUBCHEM_ATOM_DEF_STEREO_COUNT>
7

> <PUBCHEM_ATOM_UDEF_STEREO_COUNT>
2

> <PUBCHEM_BOND_DEF_STEREO_COUNT>
0

> <PUBCHEM_BOND_UDEF_STEREO_COUNT>
0

> <PUBCHEM_ISOTOPIC_ATOM_COUNT>
0

> <PUBCHEM_COMPONENT_COUNT>
1

> <PUBCHEM_CACTVS_TAUTO_COUNT>
2

> <PUBCHEM_COORDINATE_TYPE>
1
5
255

> <PUBCHEM_BONDANNOTATIONS>
10  17  6
11  19  5
14  15  5
15  35  3
21  2  6
22  43  3
16  4  5
18  5  5
20  6  6

$$$$
