12560
  -OEChem-05191508532D

118120  0     1  0  0  0  0  0999 V2000
    5.7320   -1.1345    0.0000 O   0  0  0  0  0  0  0  0  0  0  0  0
    5.7320    0.5976    0.0000 O   0  0  0  0  0  0  0  0  0  0  0  0
    7.4909   -2.9664    0.0000 O   0  0  0  0  0  0  0  0  0  0  0  0
    5.7320   -2.8665    0.0000 O   0  0  0  0  0  0  0  0  0  0  0  0
    5.7320    2.3296    0.0000 O   0  0  0  0  0  0  0  0  0  0  0  0
    8.7320    2.3296    0.0000 O   0  0  0  0  0  0  0  0  0  0  0  0
    2.8660    2.8296    0.0000 O   0  0  0  0  0  0  0  0  0  0  0  0
    3.7320   -1.1345    0.0000 O   0  0  0  0  0  0  0  0  0  0  0  0
    3.7320    4.0617    0.0000 O   0  0  0  0  0  0  0  0  0  0  0  0
   11.1980    1.7224    0.0000 O   0  0  0  0  0  0  0  0  0  0  0  0
    8.9661    1.2404    0.0000 O   0  0  0  0  0  0  0  0  0  0  0  0
   10.2321   -2.0005    0.0000 O   0  0  0  0  0  0  0  0  0  0  0  0
    8.7320    0.5976    0.0000 O   0  0  0  0  0  0  0  0  0  0  0  0
    2.7320   -2.8665    0.0000 N   0  0  0  0  0  0  0  0  0  0  0  0
    6.7320   -1.1345    0.0000 C   0  0  2  0  0  0  0  0  0  0  0  0
    7.2320   -0.2685    0.0000 C   0  0  2  0  0  0  0  0  0  0  0  0
    7.2320   -2.0005    0.0000 C   0  0  1  0  0  0  0  0  0  0  0  0
    6.7320    0.5976    0.0000 C   0  0  1  0  0  0  0  0  0  0  0  0
    8.2320   -2.0005    0.0000 C   0  0  0  0  0  0  0  0  0  0  0  0
    7.2320    1.4636    0.0000 C   0  0  2  0  0  0  0  0  0  0  0  0
    8.7320   -1.1345    0.0000 C   0  0  2  0  0  0  0  0  0  0  0  0
    5.2320   -2.0005    0.0000 C   0  0  2  0  0  0  0  0  0  0  0  0
    5.2320    1.4636    0.0000 C   0  0  2  0  0  0  0  0  0  0  0  0
    3.7320    2.3296    0.0000 C   0  0  2  0  0  0  0  0  0  0  0  0
    8.2320   -0.2685    0.0000 C   0  0  0  0  0  0  0  0  0  0  0  0
    4.2320   -2.0005    0.0000 C   0  0  1  0  0  0  0  0  0  0  0  0
    4.2320    1.4636    0.0000 C   0  0  0  0  0  0  0  0  0  0  0  0
    3.7320   -2.8665    0.0000 C   0  0  2  0  0  0  0  0  0  0  0  0
    6.5249   -2.7076    0.0000 C   0  0  0  0  0  0  0  0  0  0  0  0
    4.2320    3.1956    0.0000 C   0  0  2  0  0  0  0  0  0  0  0  0
   10.2321   -0.2685    0.0000 C   0  0  2  0  0  0  0  0  0  0  0  0
   10.2321    1.4636    0.0000 C   0  0  1  0  0  0  0  0  0  0  0  0
    4.2320   -3.7326    0.0000 C   0  0  0  0  0  0  0  0  0  0  0  0
    5.2320    3.1956    0.0000 C   0  0  2  0  0  0  0  0  0  0  0  0
    9.7320    0.5976    0.0000 C   0  0  2  0  0  0  0  0  0  0  0  0
    9.7320   -1.1345    0.0000 C   0  0  0  0  0  0  0  0  0  0  0  0
    5.2320   -3.7326    0.0000 C   0  0  1  0  0  0  0  0  0  0  0  0
    9.7320    2.3296    0.0000 C   0  0  1  0  0  0  0  0  0  0  0  0
    8.2320    1.4636    0.0000 C   0  0  0  0  0  0  0  0  0  0  0  0
    6.7320    2.3296    0.0000 C   0  0  0  0  0  0  0  0  0  0  0  0
    7.7320   -1.1345    0.0000 C   0  0  0  0  0  0  0  0  0  0  0  0
    2.8660    1.8296    0.0000 C   0  0  0  0  0  0  0  0  0  0  0  0
   11.2321   -0.2685    0.0000 C   0  0  0  0  0  0  0  0  0  0  0  0
   11.0512    0.8900    0.0000 C   0  0  0  0  0  0  0  0  0  0  0  0
   10.2321    3.1956    0.0000 C   0  0  0  0  0  0  0  0  0  0  0  0
    5.7320    4.0617    0.0000 C   0  0  0  0  0  0  0  0  0  0  0  0
    5.7320   -4.5986    0.0000 C   0  0  0  0  0  0  0  0  0  0  0  0
    2.2320   -3.7326    0.0000 C   0  0  0  0  0  0  0  0  0  0  0  0
    2.2320   -2.0005    0.0000 C   0  0  0  0  0  0  0  0  0  0  0  0
    9.7320    4.0617    0.0000 C   0  0  0  0  0  0  0  0  0  0  0  0
    2.0000    2.3296    0.0000 C   0  0  0  0  0  0  0  0  0  0  0  0
    6.4220   -0.5976    0.0000 H   0  0  0  0  0  0  0  0  0  0  0  0
    7.5420   -0.8054    0.0000 H   0  0  0  0  0  0  0  0  0  0  0  0
    6.4220    1.1345    0.0000 H   0  0  0  0  0  0  0  0  0  0  0  0
    8.1244   -2.6111    0.0000 H   0  0  0  0  0  0  0  0  0  0  0  0
    8.8147   -2.2126    0.0000 H   0  0  0  0  0  0  0  0  0  0  0  0
    6.6120    1.4636    0.0000 H   0  0  0  0  0  0  0  0  0  0  0  0
    8.7320   -0.5145    0.0000 H   0  0  0  0  0  0  0  0  0  0  0  0
    4.9220   -1.4636    0.0000 H   0  0  0  0  0  0  0  0  0  0  0  0
    4.9220    0.9266    0.0000 H   0  0  0  0  0  0  0  0  0  0  0  0
    8.2320   -0.8885    0.0000 H   0  0  0  0  0  0  0  0  0  0  0  0
    8.8520   -0.2685    0.0000 H   0  0  0  0  0  0  0  0  0  0  0  0
    8.2320    0.3515    0.0000 H   0  0  0  0  0  0  0  0  0  0  0  0
    3.6120   -2.0005    0.0000 H   0  0  0  0  0  0  0  0  0  0  0  0
    3.6494    1.2515    0.0000 H   0  0  0  0  0  0  0  0  0  0  0  0
    4.3397    0.8530    0.0000 H   0  0  0  0  0  0  0  0  0  0  0  0
    3.4220   -2.3296    0.0000 H   0  0  0  0  0  0  0  0  0  0  0  0
    6.0865   -2.2692    0.0000 H   0  0  0  0  0  0  0  0  0  0  0  0
    6.0865   -3.1460    0.0000 H   0  0  0  0  0  0  0  0  0  0  0  0
    6.9634   -3.1460    0.0000 H   0  0  0  0  0  0  0  0  0  0  0  0
    3.6120    3.1956    0.0000 H   0  0  0  0  0  0  0  0  0  0  0  0
   10.5421   -0.8054    0.0000 H   0  0  0  0  0  0  0  0  0  0  0  0
    3.6494   -3.9446    0.0000 H   0  0  0  0  0  0  0  0  0  0  0  0
    4.3397   -4.3431    0.0000 H   0  0  0  0  0  0  0  0  0  0  0  0
    5.8520    3.1956    0.0000 H   0  0  0  0  0  0  0  0  0  0  0  0
    9.2571    0.1991    0.0000 H   0  0  0  0  0  0  0  0  0  0  0  0
    5.8520   -3.7326    0.0000 H   0  0  0  0  0  0  0  0  0  0  0  0
    9.4220    2.8665    0.0000 H   0  0  0  0  0  0  0  0  0  0  0  0
    8.0897   -3.1269    0.0000 H   0  0  0  0  0  0  0  0  0  0  0  0
    7.2690    2.6396    0.0000 H   0  0  0  0  0  0  0  0  0  0  0  0
    6.4220    2.8665    0.0000 H   0  0  0  0  0  0  0  0  0  0  0  0
    6.1951    2.0196    0.0000 H   0  0  0  0  0  0  0  0  0  0  0  0
    7.7320   -0.5145    0.0000 H   0  0  0  0  0  0  0  0  0  0  0  0
    7.1120   -1.1345    0.0000 H   0  0  0  0  0  0  0  0  0  0  0  0
    7.7320   -1.7545    0.0000 H   0  0  0  0  0  0  0  0  0  0  0  0
    2.5560    2.3665    0.0000 H   0  0  0  0  0  0  0  0  0  0  0  0
    2.3291    1.5196    0.0000 H   0  0  0  0  0  0  0  0  0  0  0  0
    3.1760    1.2927    0.0000 H   0  0  0  0  0  0  0  0  0  0  0  0
   11.2321   -0.8885    0.0000 H   0  0  0  0  0  0  0  0  0  0  0  0
   11.8521   -0.2685    0.0000 H   0  0  0  0  0  0  0  0  0  0  0  0
   11.2321    0.3515    0.0000 H   0  0  0  0  0  0  0  0  0  0  0  0
   10.6956    0.3821    0.0000 H   0  0  0  0  0  0  0  0  0  0  0  0
   11.5591    0.5344    0.0000 H   0  0  0  0  0  0  0  0  0  0  0  0
   11.4068    1.3979    0.0000 H   0  0  0  0  0  0  0  0  0  0  0  0
   10.7070    2.7971    0.0000 H   0  0  0  0  0  0  0  0  0  0  0  0
   10.7070    3.5942    0.0000 H   0  0  0  0  0  0  0  0  0  0  0  0
    6.2690    3.7517    0.0000 H   0  0  0  0  0  0  0  0  0  0  0  0
    6.0420    4.5986    0.0000 H   0  0  0  0  0  0  0  0  0  0  0  0
    5.1951    4.3717    0.0000 H   0  0  0  0  0  0  0  0  0  0  0  0
    5.1951   -4.9086    0.0000 H   0  0  0  0  0  0  0  0  0  0  0  0
    6.0420   -5.1355    0.0000 H   0  0  0  0  0  0  0  0  0  0  0  0
    6.2690   -4.2886    0.0000 H   0  0  0  0  0  0  0  0  0  0  0  0
    3.1120   -1.1345    0.0000 H   0  0  0  0  0  0  0  0  0  0  0  0
    4.0420    4.5986    0.0000 H   0  0  0  0  0  0  0  0  0  0  0  0
   11.3584    2.3213    0.0000 H   0  0  0  0  0  0  0  0  0  0  0  0
    9.3645    1.7153    0.0000 H   0  0  0  0  0  0  0  0  0  0  0  0
    2.7690   -1.6905    0.0000 H   0  0  0  0  0  0  0  0  0  0  0  0
    1.9220   -1.4636    0.0000 H   0  0  0  0  0  0  0  0  0  0  0  0
    1.6951   -2.3105    0.0000 H   0  0  0  0  0  0  0  0  0  0  0  0
    1.6951   -3.4226    0.0000 H   0  0  0  0  0  0  0  0  0  0  0  0
    1.9220   -4.2695    0.0000 H   0  0  0  0  0  0  0  0  0  0  0  0
    2.7690   -4.0426    0.0000 H   0  0  0  0  0  0  0  0  0  0  0  0
   10.2690    4.3717    0.0000 H   0  0  0  0  0  0  0  0  0  0  0  0
    9.4220    4.5986    0.0000 H   0  0  0  0  0  0  0  0  0  0  0  0
    9.1951    3.7517    0.0000 H   0  0  0  0  0  0  0  0  0  0  0  0
    1.6900    2.8665    0.0000 H   0  0  0  0  0  0  0  0  0  0  0  0
    1.4631    2.0196    0.0000 H   0  0  0  0  0  0  0  0  0  0  0  0
    2.3100    1.7927    0.0000 H   0  0  0  0  0  0  0  0  0  0  0  0
 15  1  1  6  0  0  0
 22  1  1  6  0  0  0
 18  2  1  6  0  0  0
 23  2  1  1  0  0  0
 17  3  1  1  0  0  0
  3 79  1  0  0  0  0
  4 22  1  0  0  0  0
  4 37  1  0  0  0  0
  5 23  1  0  0  0  0
  5 34  1  0  0  0  0
  6 38  1  0  0  0  0
  6 39  1  0  0  0  0
 24  7  1  1  0  0  0
  7 51  1  0  0  0  0
 26  8  1  1  0  0  0
  8103  1  0  0  0  0
 30  9  1  1  0  0  0
  9104  1  0  0  0  0
 32 10  1  1  0  0  0
 10105  1  0  0  0  0
 35 11  1  1  0  0  0
 11106  1  0  0  0  0
 12 36  2  0  0  0  0
 13 39  2  0  0  0  0
 28 14  1  6  0  0  0
 14 48  1  0  0  0  0
 14 49  1  0  0  0  0
 15 16  1  0  0  0  0
 15 17  1  0  0  0  0
 15 52  1  0  0  0  0
 16 18  1  0  0  0  0
 16 25  1  6  0  0  0
 16 53  1  0  0  0  0
 17 19  1  0  0  0  0
 17 29  1  0  0  0  0
 18 20  1  0  0  0  0
 18 54  1  0  0  0  0
 19 21  1  0  0  0  0
 19 55  1  0  0  0  0
 19 56  1  0  0  0  0
 20 39  1  0  0  0  0
 20 40  1  1  0  0  0
 20 57  1  0  0  0  0
 21 36  1  0  0  0  0
 21 41  1  1  0  0  0
 21 58  1  0  0  0  0
 22 26  1  0  0  0  0
 22 59  1  0  0  0  0
 23 27  1  0  0  0  0
 23 60  1  0  0  0  0
 24 27  1  0  0  0  0
 24 30  1  0  0  0  0
 24 42  1  0  0  0  0
 25 61  1  0  0  0  0
 25 62  1  0  0  0  0
 25 63  1  0  0  0  0
 26 28  1  0  0  0  0
 26 64  1  0  0  0  0
 27 65  1  0  0  0  0
 27 66  1  0  0  0  0
 28 33  1  0  0  0  0
 28 67  1  0  0  0  0
 29 68  1  0  0  0  0
 29 69  1  0  0  0  0
 29 70  1  0  0  0  0
 30 34  1  0  0  0  0
 30 71  1  0  0  0  0
 31 35  1  0  0  0  0
 31 36  1  0  0  0  0
 31 43  1  1  0  0  0
 31 72  1  0  0  0  0
 32 35  1  0  0  0  0
 32 38  1  0  0  0  0
 32 44  1  0  0  0  0
 33 37  1  0  0  0  0
 33 73  1  0  0  0  0
 33 74  1  0  0  0  0
 34 46  1  6  0  0  0
 34 75  1  0  0  0  0
 35 76  1  0  0  0  0
 37 47  1  6  0  0  0
 37 77  1  0  0  0  0
 38 45  1  6  0  0  0
 38 78  1  0  0  0  0
 40 80  1  0  0  0  0
 40 81  1  0  0  0  0
 40 82  1  0  0  0  0
 41 83  1  0  0  0  0
 41 84  1  0  0  0  0
 41 85  1  0  0  0  0
 42 86  1  0  0  0  0
 42 87  1  0  0  0  0
 42 88  1  0  0  0  0
 43 89  1  0  0  0  0
 43 90  1  0  0  0  0
 43 91  1  0  0  0  0
 44 92  1  0  0  0  0
 44 93  1  0  0  0  0
 44 94  1  0  0  0  0
 45 50  1  0  0  0  0
 45 95  1  0  0  0  0
 45 96  1  0  0  0  0
 46 97  1  0  0  0  0
 46 98  1  0  0  0  0
 46 99  1  0  0  0  0
 47100  1  0  0  0  0
 47101  1  0  0  0  0
 47102  1  0  0  0  0
 48110  1  0  0  0  0
 48111  1  0  0  0  0
 48112  1  0  0  0  0
 49107  1  0  0  0  0
 49108  1  0  0  0  0
 49109  1  0  0  0  0
 50113  1  0  0  0  0
 50114  1  0  0  0  0
 50115  1  0  0  0  0
 51116  1  0  0  0  0
 51117  1  0  0  0  0
 51118  1  0  0  0  0
M  END
> <PUBCHEM_COMPOUND_CID>
12560

> <PUBCHEM_COMPOUND_CANONICALIZED>
1

> <PUBCHEM_CACTVS_COMPLEXITY>
1180

> <PUBCHEM_CACTVS_HBOND_ACCEPTOR>
14

> <PUBCHEM_CACTVS_HBOND_DONOR>
5

> <PUBCHEM_CACTVS_ROTATABLE_BOND>
7

> <PUBCHEM_CACTVS_SUBSKEYS>
AAADcfB+PAAAAAAAAAAAAAAAAAAAAAAAAAAkSAAAAAAAAAAAAAAAHgAACAAADXzxgAcCCAMABgAIAICQCAAAAAAAAAAAAAEIAAATEBYAgAAmQAAHIAAXAAHK7PzOAAAAAAAAAAAAAAAAAAAAAAAAAAAAAA==

> <PUBCHEM_IUPAC_OPENEYE_NAME>
(3R,4S,5S,6R,7R,9R,11R,12R,13S,14R)-6-[(2S,3R,4S,6R)-4-(dimethylamino)-3-hydroxy-6-methyl-tetrahydropyran-2-yl]oxy-14-ethyl-7,12,13-trihydroxy-4-[(2R,4R,5S,6S)-5-hydroxy-4-methoxy-4,6-dimethyl-tetrahydropyran-2-yl]oxy-3,5,7,9,11,13-hexamethyl-oxacyclotetradecane-2,10-dione

> <PUBCHEM_IUPAC_CAS_NAME>
(3R,4S,5S,6R,7R,9R,11R,12R,13S,14R)-6-[[(2S,3R,4S,6R)-4-(dimethylamino)-3-hydroxy-6-methyl-2-oxanyl]oxy]-14-ethyl-7,12,13-trihydroxy-4-[[(2R,4R,5S,6S)-5-hydroxy-4-methoxy-4,6-dimethyl-2-oxanyl]oxy]-3,5,7,9,11,13-hexamethyl-oxacyclotetradecane-2,10-dione

> <PUBCHEM_IUPAC_NAME>
(3R,4S,5S,6R,7R,9R,11R,12R,13S,14R)-6-[(2S,3R,4S,6R)-4-(dimethylamino)-3-hydroxy-6-methyloxan-2-yl]oxy-14-ethyl-7,12,13-trihydroxy-4-[(2R,4R,5S,6S)-5-hydroxy-4-methoxy-4,6-dimethyloxan-2-yl]oxy-3,5,7,9,11,13-hexamethyl-oxacyclotetradecane-2,10-dione

> <PUBCHEM_IUPAC_SYSTEMATIC_NAME>
(3R,4S,5S,6R,7R,9R,11R,12R,13S,14R)-6-[(2S,3R,4S,6R)-4-(dimethylamino)-6-methyl-3-oxidanyl-oxan-2-yl]oxy-14-ethyl-4-[(2R,4R,5S,6S)-4-methoxy-4,6-dimethyl-5-oxidanyl-oxan-2-yl]oxy-3,5,7,9,11,13-hexamethyl-7,12,13-tris(oxidanyl)-1-oxacyclotetradecane-2,10-dione

> <PUBCHEM_IUPAC_TRADITIONAL_NAME>
(3R,4S,5S,6R,7R,9R,11R,12R,13S,14R)-6-[(2S,3R,4S,6R)-4-(dimethylamino)-3-hydroxy-6-methyl-tetrahydropyran-2-yl]oxy-14-ethyl-7,12,13-trihydroxy-4-[(2R,4R,5S,6S)-5-hydroxy-4-methoxy-4,6-dimethyl-tetrahydropyran-2-yl]oxy-3,5,7,9,11,13-hexamethyl-oxacyclotetradecane-2,10-quinone

> <PUBCHEM_IUPAC_INCHI>
InChI=1S/C37H67NO13/c1-14-25-37(10,45)30(41)20(4)27(39)18(2)16-35(8,44)32(51-34-28(40)24(38(11)12)15-19(3)47-34)21(5)29(22(6)33(43)49-25)50-26-17-36(9,46-13)31(42)23(7)48-26/h18-26,28-32,34,40-42,44-45H,14-17H2,1-13H3/t18-,19-,20+,21+,22-,23+,24+,25-,26+,28-,29+,30-,31+,32-,34+,35-,36-,37-/m1/s1

> <PUBCHEM_IUPAC_INCHIKEY>
ULGZDMOVFRHVEP-RWJQBGPGSA-N

> <PUBCHEM_XLOGP3>
2.7

> <PUBCHEM_EXACT_MASS>
733.461241

> <PUBCHEM_MOLECULAR_FORMULA>
C37H67NO13

> <PUBCHEM_MOLECULAR_WEIGHT>
733.92678

> <PUBCHEM_OPENEYE_CAN_SMILES>
CCC1C(C(C(C(=O)C(CC(C(C(C(C(C(=O)O1)C)OC2CC(C(C(O2)C)O)(C)OC)C)OC3C(C(CC(O3)C)N(C)C)O)(C)O)C)C)O)(C)O

> <PUBCHEM_OPENEYE_ISO_SMILES>
CC[C@@H]1[C@@]([C@@H]([C@H](C(=O)[C@@H](C[C@@]([C@@H]([C@H]([C@@H]([C@H](C(=O)O1)C)O[C@H]2C[C@@]([C@H]([C@@H](O2)C)O)(C)OC)C)O[C@H]3[C@@H]([C@H](C[C@H](O3)C)N(C)C)O)(C)O)C)C)O)(C)O

> <PUBCHEM_CACTVS_TPSA>
194

> <PUBCHEM_MONOISOTOPIC_WEIGHT>
733.461241

> <PUBCHEM_TOTAL_CHARGE>
0

> <PUBCHEM_HEAVY_ATOM_COUNT>
51

> <PUBCHEM_ATOM_DEF_STEREO_COUNT>
18

> <PUBCHEM_ATOM_UDEF_STEREO_COUNT>
0

> <PUBCHEM_BOND_DEF_STEREO_COUNT>
0

> <PUBCHEM_BOND_UDEF_STEREO_COUNT>
0

> <PUBCHEM_ISOTOPIC_ATOM_COUNT>
0

> <PUBCHEM_COMPONENT_COUNT>
1

> <PUBCHEM_CACTVS_TAUTO_COUNT>
6

> <PUBCHEM_COORDINATE_TYPE>
1
5
255

> <PUBCHEM_BONDANNOTATIONS>
15  1  6
22  1  6
32  10  5
35  11  5
28  14  6
16  25  6
18  2  6
23  2  5
20  40  5
21  41  5
17  3  5
31  43  5
34  46  6
37  47  6
38  45  6
24  7  5
26  8  5
30  9  5

$$$$
