86341926
  -OEChem-03171520152D

183185  0     1  0  0  0  0  0999 V2000
   15.7573   -7.2853    0.0000 O   0  0  0  0  0  0  0  0  0  0  0  0
   10.6400   -1.1782    0.0000 O   0  0  0  0  0  0  0  0  0  0  0  0
   19.2670   -9.7689    0.0000 O   0  0  0  0  0  0  0  0  0  0  0  0
   14.2341   -1.4650    0.0000 O   0  0  0  0  0  0  0  0  0  0  0  0
   15.2889   -8.7884    0.0000 O   0  0  0  0  0  0  0  0  0  0  0  0
   10.7884    2.4243    0.0000 O   0  0  0  0  0  0  0  0  0  0  0  0
   20.7199   -5.9380    0.0000 O   0  0  0  0  0  0  0  0  0  0  0  0
   17.0920   -4.0339    0.0000 O   0  0  0  0  0  0  0  0  0  0  0  0
   14.0857   -5.0675    0.0000 O   0  0  0  0  0  0  0  0  0  0  0  0
   15.1827   -1.7817    0.0000 O   0  0  0  0  0  0  0  0  0  0  0  0
    7.3428    6.3137    0.0000 O   0  0  0  0  0  0  0  0  0  0  0  0
    7.1943    2.7112    0.0000 O   0  0  0  0  0  0  0  0  0  0  0  0
    8.2913    5.9970    0.0000 O   0  0  0  0  0  0  0  0  0  0  0  0
    3.7486    6.6006    0.0000 O   0  0  0  0  0  0  0  0  0  0  0  0
    6.8459    0.0886    0.0000 O   0  0  0  0  0  0  0  0  0  0  0  0
   12.3371   -0.8317    0.0000 N   0  0  0  0  0  0  0  0  0  0  0  0
   17.8313   -9.1228    0.0000 N   0  0  0  0  0  0  0  0  0  0  0  0
   10.2400    0.7814    0.0000 N   0  0  0  0  0  0  0  0  0  0  0  0
   19.9054   -7.2853    0.0000 N   0  0  0  0  0  0  0  0  0  0  0  0
   21.4614   -7.3768    0.0000 N   0  0  0  0  0  0  0  0  0  0  0  0
   13.6856   -3.1080    0.0000 N   0  0  0  0  0  0  0  0  0  0  0  0
   15.7827   -4.7211    0.0000 N   0  0  0  0  0  0  0  0  0  0  0  0
   22.8818   -8.1517    0.0000 N   0  0  0  0  0  0  0  0  0  0  0  0
   18.3313   -5.0049    0.0000 N   0  0  0  0  0  0  0  0  0  0  0  0
    8.8914    3.0577    0.0000 N   0  0  0  0  0  0  0  0  0  0  0  0
    5.4457    6.9470    0.0000 N   0  0  0  0  0  0  0  0  0  0  0  0
    6.7943    4.6708    0.0000 N   0  0  0  0  0  0  0  0  0  0  0  0
   22.9321   -6.3704    0.0000 N   0  0  0  0  0  0  0  0  0  0  0  0
    5.0456    8.9066    0.0000 N   0  0  0  0  0  0  0  0  0  0  0  0
    5.6973    1.3850    0.0000 N   0  0  0  0  0  0  0  0  0  0  0  0
   11.1885    0.4647    0.0000 C   0  0  2  0  0  0  0  0  0  0  0  0
   12.5371   -1.8115    0.0000 C   0  0  1  0  0  0  0  0  0  0  0  0
   11.9370    1.1279    0.0000 C   0  0  2  0  0  0  0  0  0  0  0  0
   20.3738   -8.7884    0.0000 C   0  0  0  0  0  0  0  0  0  0  0  0
   11.7886   -2.4745    0.0000 C   0  0  2  0  0  0  0  0  0  0  0  0
   19.5508   -8.2203    0.0000 C   0  0  1  0  0  0  0  0  0  0  0  0
   21.2772   -8.3597    0.0000 C   0  0  1  0  0  0  0  0  0  0  0  0
   16.8604   -8.8834    0.0000 C   0  0  1  0  0  0  0  0  0  0  0  0
   16.3957   -9.7689    0.0000 C   0  0  2  0  0  0  0  0  0  0  0  0
   11.3885   -0.5150    0.0000 C   0  0  0  0  0  0  0  0  0  0  0  0
   11.7370    2.1077    0.0000 C   0  0  0  0  0  0  0  0  0  0  0  0
   10.8401   -2.1579    0.0000 C   0  0  0  0  0  0  0  0  0  0  0  0
   18.8023   -8.8834    0.0000 C   0  0  0  0  0  0  0  0  0  0  0  0
   22.1551   -8.8386    0.0000 C   0  0  0  0  0  0  0  0  0  0  0  0
   16.9301  -10.6141    0.0000 C   0  0  0  0  0  0  0  0  0  0  0  0
   16.4459   -5.4696    0.0000 C   0  0  2  0  0  0  0  0  0  0  0  0
   13.4856   -2.1282    0.0000 C   0  0  0  0  0  0  0  0  0  0  0  0
   15.8778   -6.2926    0.0000 C   0  0  2  0  0  0  0  0  0  0  0  0
   12.8855    0.8112    0.0000 C   0  0  0  0  0  0  0  0  0  0  0  0
   11.9886   -3.4543    0.0000 C   0  0  0  0  0  0  0  0  0  0  0  0
   16.1119   -8.2203    0.0000 C   0  0  0  0  0  0  0  0  0  0  0  0
   15.3965   -9.8092    0.0000 C   0  0  0  0  0  0  0  0  0  0  0  0
    9.0914    2.0779    0.0000 C   0  0  1  0  0  0  0  0  0  0  0  0
   14.6342   -3.4246    0.0000 C   0  0  2  0  0  0  0  0  0  0  0  0
   19.2168   -5.4696    0.0000 C   0  0  2  0  0  0  0  0  0  0  0  0
   10.0399    1.7612    0.0000 C   0  0  0  0  0  0  0  0  0  0  0  0
   19.7848   -6.2926    0.0000 C   0  0  0  0  0  0  0  0  0  0  0  0
   22.4531   -7.2483    0.0000 C   0  0  0  0  0  0  0  0  0  0  0  0
    4.8972    5.3041    0.0000 C   0  0  2  0  0  0  0  0  0  0  0  0
   12.4855    2.7708    0.0000 C   0  0  0  0  0  0  0  0  0  0  0  0
    5.6457    5.9672    0.0000 C   0  0  1  0  0  0  0  0  0  0  0  0
   17.3313   -5.0049    0.0000 C   0  0  0  0  0  0  0  0  0  0  0  0
   10.0916   -2.8210    0.0000 C   0  0  0  0  0  0  0  0  0  0  0  0
    8.3429    1.4148    0.0000 C   0  0  0  0  0  0  0  0  0  0  0  0
   16.4654  -11.4995    0.0000 C   0  0  0  0  0  0  0  0  0  0  0  0
   14.8342   -4.4044    0.0000 C   0  0  0  0  0  0  0  0  0  0  0  0
   14.8908   -6.4530    0.0000 C   0  0  0  0  0  0  0  0  0  0  0  0
    3.9487    5.6208    0.0000 C   0  0  0  0  0  0  0  0  0  0  0  0
   15.3827   -2.7615    0.0000 C   0  0  0  0  0  0  0  0  0  0  0  0
    7.7428    4.3541    0.0000 C   0  0  2  0  0  0  0  0  0  0  0  0
   19.8799   -4.7211    0.0000 C   0  0  0  0  0  0  0  0  0  0  0  0
    6.5942    5.6506    0.0000 C   0  0  0  0  0  0  0  0  0  0  0  0
    7.9428    3.3743    0.0000 C   0  0  0  0  0  0  0  0  0  0  0  0
    7.3944    1.7314    0.0000 C   0  0  0  0  0  0  0  0  0  0  0  0
    5.0972    4.3243    0.0000 C   0  0  0  0  0  0  0  0  0  0  0  0
    4.2971    8.2435    0.0000 C   0  0  1  0  0  0  0  0  0  0  0  0
    8.4913    5.0172    0.0000 C   0  0  0  0  0  0  0  0  0  0  0  0
    3.2002    4.9577    0.0000 C   0  0  0  0  0  0  0  0  0  0  0  0
    4.4972    7.2637    0.0000 C   0  0  0  0  0  0  0  0  0  0  0  0
    3.3486    8.5602    0.0000 C   0  0  0  0  0  0  0  0  0  0  0  0
    6.6458    1.0683    0.0000 C   0  0  0  0  0  0  0  0  0  0  0  0
    3.1486    9.5399    0.0000 C   0  0  0  0  0  0  0  0  0  0  0  0
    5.9942    8.5900    0.0000 C   0  0  0  0  0  0  0  0  0  0  0  0
    3.8971   10.2031    0.0000 C   0  0  0  0  0  0  0  0  0  0  0  0
    2.2000    9.8566    0.0000 C   0  0  0  0  0  0  0  0  0  0  0  0
    3.6970   11.1829    0.0000 C   0  0  0  0  0  0  0  0  0  0  0  0
    2.0000   10.8364    0.0000 C   0  0  0  0  0  0  0  0  0  0  0  0
    2.7485   11.4995    0.0000 C   0  0  0  0  0  0  0  0  0  0  0  0
   11.0645    1.0722    0.0000 H   0  0  0  0  0  0  0  0  0  0  0  0
   13.0012   -1.4004    0.0000 H   0  0  0  0  0  0  0  0  0  0  0  0
   12.4011    1.5390    0.0000 H   0  0  0  0  0  0  0  0  0  0  0  0
   19.9383   -9.2297    0.0000 H   0  0  0  0  0  0  0  0  0  0  0  0
   20.7328   -9.2939    0.0000 H   0  0  0  0  0  0  0  0  0  0  0  0
   12.3767   -2.6709    0.0000 H   0  0  0  0  0  0  0  0  0  0  0  0
   20.1427   -8.0359    0.0000 H   0  0  0  0  0  0  0  0  0  0  0  0
   20.7861   -7.9813    0.0000 H   0  0  0  0  0  0  0  0  0  0  0  0
   17.2092   -9.6586    0.0000 H   0  0  0  0  0  0  0  0  0  0  0  0
   16.0643   -9.2449    0.0000 H   0  0  0  0  0  0  0  0  0  0  0  0
   12.8011   -0.4206    0.0000 H   0  0  0  0  0  0  0  0  0  0  0  0
   11.4127    2.6361    0.0000 H   0  0  0  0  0  0  0  0  0  0  0  0
   11.1603    1.8800    0.0000 H   0  0  0  0  0  0  0  0  0  0  0  0
   11.1356   -1.6128    0.0000 H   0  0  0  0  0  0  0  0  0  0  0  0
   10.3546   -1.7722    0.0000 H   0  0  0  0  0  0  0  0  0  0  0  0
   21.8029   -9.3489    0.0000 H   0  0  0  0  0  0  0  0  0  0  0  0
   22.6257   -9.2422    0.0000 H   0  0  0  0  0  0  0  0  0  0  0  0
   17.8313   -9.7427    0.0000 H   0  0  0  0  0  0  0  0  0  0  0  0
   17.4207  -10.9932    0.0000 H   0  0  0  0  0  0  0  0  0  0  0  0
   17.3886  -10.1967    0.0000 H   0  0  0  0  0  0  0  0  0  0  0  0
   15.8270   -5.5070    0.0000 H   0  0  0  0  0  0  0  0  0  0  0  0
    9.7759    0.3703    0.0000 H   0  0  0  0  0  0  0  0  0  0  0  0
   15.4483   -6.7397    0.0000 H   0  0  0  0  0  0  0  0  0  0  0  0
   20.5209   -7.3600    0.0000 H   0  0  0  0  0  0  0  0  0  0  0  0
   21.0356   -6.9262    0.0000 H   0  0  0  0  0  0  0  0  0  0  0  0
   12.6892    0.2231    0.0000 H   0  0  0  0  0  0  0  0  0  0  0  0
   13.4736    0.6149    0.0000 H   0  0  0  0  0  0  0  0  0  0  0  0
   13.0819    1.3993    0.0000 H   0  0  0  0  0  0  0  0  0  0  0  0
   11.3812   -3.5784    0.0000 H   0  0  0  0  0  0  0  0  0  0  0  0
   12.1126   -4.0618    0.0000 H   0  0  0  0  0  0  0  0  0  0  0  0
   12.5961   -3.3303    0.0000 H   0  0  0  0  0  0  0  0  0  0  0  0
   15.3715   -9.1897    0.0000 H   0  0  0  0  0  0  0  0  0  0  0  0
   14.7770   -9.8341    0.0000 H   0  0  0  0  0  0  0  0  0  0  0  0
   15.4214  -10.4287    0.0000 H   0  0  0  0  0  0  0  0  0  0  0  0
    8.5033    2.2742    0.0000 H   0  0  0  0  0  0  0  0  0  0  0  0
   14.1701   -3.8358    0.0000 H   0  0  0  0  0  0  0  0  0  0  0  0
   19.1050   -4.8598    0.0000 H   0  0  0  0  0  0  0  0  0  0  0  0
   13.2216   -3.5190    0.0000 H   0  0  0  0  0  0  0  0  0  0  0  0
    5.4853    5.1078    0.0000 H   0  0  0  0  0  0  0  0  0  0  0  0
   12.8966    2.3067    0.0000 H   0  0  0  0  0  0  0  0  0  0  0  0
   12.9496    3.1819    0.0000 H   0  0  0  0  0  0  0  0  0  0  0  0
   12.0744    3.2349    0.0000 H   0  0  0  0  0  0  0  0  0  0  0  0
   15.9791   -4.1330    0.0000 H   0  0  0  0  0  0  0  0  0  0  0  0
    5.0576    6.1636    0.0000 H   0  0  0  0  0  0  0  0  0  0  0  0
    9.6804   -2.3569    0.0000 H   0  0  0  0  0  0  0  0  0  0  0  0
    9.6275   -3.2321    0.0000 H   0  0  0  0  0  0  0  0  0  0  0  0
   10.5027   -3.2851    0.0000 H   0  0  0  0  0  0  0  0  0  0  0  0
    8.0474    0.8697    0.0000 H   0  0  0  0  0  0  0  0  0  0  0  0
    8.8284    1.0291    0.0000 H   0  0  0  0  0  0  0  0  0  0  0  0
   15.9164  -11.2114    0.0000 H   0  0  0  0  0  0  0  0  0  0  0  0
   16.1773  -12.0485    0.0000 H   0  0  0  0  0  0  0  0  0  0  0  0
   17.0144  -11.7877    0.0000 H   0  0  0  0  0  0  0  0  0  0  0  0
   18.4797   -4.4029    0.0000 H   0  0  0  0  0  0  0  0  0  0  0  0
   14.7913   -5.8410    0.0000 H   0  0  0  0  0  0  0  0  0  0  0  0
   14.2788   -6.5524    0.0000 H   0  0  0  0  0  0  0  0  0  0  0  0
   14.9902   -7.0650    0.0000 H   0  0  0  0  0  0  0  0  0  0  0  0
    9.3554    3.4688    0.0000 H   0  0  0  0  0  0  0  0  0  0  0  0
    4.2441    6.1659    0.0000 H   0  0  0  0  0  0  0  0  0  0  0  0
    3.4632    6.0064    0.0000 H   0  0  0  0  0  0  0  0  0  0  0  0
   15.7070   -3.2899    0.0000 H   0  0  0  0  0  0  0  0  0  0  0  0
   15.9594   -2.5339    0.0000 H   0  0  0  0  0  0  0  0  0  0  0  0
    7.6188    4.9616    0.0000 H   0  0  0  0  0  0  0  0  0  0  0  0
   20.3440   -5.1322    0.0000 H   0  0  0  0  0  0  0  0  0  0  0  0
   20.2910   -4.2570    0.0000 H   0  0  0  0  0  0  0  0  0  0  0  0
   19.4158   -4.3100    0.0000 H   0  0  0  0  0  0  0  0  0  0  0  0
    7.6898    2.2765    0.0000 H   0  0  0  0  0  0  0  0  0  0  0  0
    6.9089    2.1170    0.0000 H   0  0  0  0  0  0  0  0  0  0  0  0
    4.4898    4.2003    0.0000 H   0  0  0  0  0  0  0  0  0  0  0  0
    5.2212    3.7169    0.0000 H   0  0  0  0  0  0  0  0  0  0  0  0
    5.7047    4.4483    0.0000 H   0  0  0  0  0  0  0  0  0  0  0  0
    5.9098    7.3582    0.0000 H   0  0  0  0  0  0  0  0  0  0  0  0
    6.3302    4.2596    0.0000 H   0  0  0  0  0  0  0  0  0  0  0  0
   23.5519   -6.3554    0.0000 H   0  0  0  0  0  0  0  0  0  0  0  0
   22.6092   -5.8411    0.0000 H   0  0  0  0  0  0  0  0  0  0  0  0
    4.1731    8.8510    0.0000 H   0  0  0  0  0  0  0  0  0  0  0  0
    2.7890    5.4218    0.0000 H   0  0  0  0  0  0  0  0  0  0  0  0
    2.7361    4.5465    0.0000 H   0  0  0  0  0  0  0  0  0  0  0  0
    3.6113    4.4936    0.0000 H   0  0  0  0  0  0  0  0  0  0  0  0
    8.8156    4.4888    0.0000 H   0  0  0  0  0  0  0  0  0  0  0  0
    9.0680    5.2449    0.0000 H   0  0  0  0  0  0  0  0  0  0  0  0
    2.7288    8.5435    0.0000 H   0  0  0  0  0  0  0  0  0  0  0  0
    3.2574    7.9469    0.0000 H   0  0  0  0  0  0  0  0  0  0  0  0
   15.6467   -1.3706    0.0000 H   0  0  0  0  0  0  0  0  0  0  0  0
    4.9216    9.5141    0.0000 H   0  0  0  0  0  0  0  0  0  0  0  0
    8.7554    6.4082    0.0000 H   0  0  0  0  0  0  0  0  0  0  0  0
    5.2333    0.9739    0.0000 H   0  0  0  0  0  0  0  0  0  0  0  0
    5.5733    1.9924    0.0000 H   0  0  0  0  0  0  0  0  0  0  0  0
    5.7978    8.0019    0.0000 H   0  0  0  0  0  0  0  0  0  0  0  0
    6.5823    8.3936    0.0000 H   0  0  0  0  0  0  0  0  0  0  0  0
    6.1905    9.1780    0.0000 H   0  0  0  0  0  0  0  0  0  0  0  0
    4.4852   10.0067    0.0000 H   0  0  0  0  0  0  0  0  0  0  0  0
    1.7360    9.4455    0.0000 H   0  0  0  0  0  0  0  0  0  0  0  0
    4.1611   11.5940    0.0000 H   0  0  0  0  0  0  0  0  0  0  0  0
    1.4119   11.0327    0.0000 H   0  0  0  0  0  0  0  0  0  0  0  0
    2.6245   12.1070    0.0000 H   0  0  0  0  0  0  0  0  0  0  0  0
  1 48  1  0  0  0  0
  1 51  1  0  0  0  0
  2 40  2  0  0  0  0
  3 43  2  0  0  0  0
  4 47  2  0  0  0  0
  5 51  2  0  0  0  0
  6 56  2  0  0  0  0
  7 57  2  0  0  0  0
  8 62  2  0  0  0  0
  9 66  2  0  0  0  0
 10 69  1  0  0  0  0
 10171  1  0  0  0  0
 11 72  2  0  0  0  0
 12 73  2  0  0  0  0
 13 77  1  0  0  0  0
 13173  1  0  0  0  0
 14 79  2  0  0  0  0
 15 81  2  0  0  0  0
 32 16  1  6  0  0  0
 16 40  1  0  0  0  0
 16 99  1  0  0  0  0
 17 38  1  0  0  0  0
 17 43  1  0  0  0  0
 17106  1  0  0  0  0
 31 18  1  6  0  0  0
 18 56  1  0  0  0  0
 18110  1  0  0  0  0
 19 36  1  0  0  0  0
 19 57  1  0  0  0  0
 19112  1  0  0  0  0
 20 37  1  0  0  0  0
 20 58  1  0  0  0  0
 20113  1  0  0  0  0
 21 47  1  0  0  0  0
 54 21  1  1  0  0  0
 21126  1  0  0  0  0
 46 22  1  1  0  0  0
 22 66  1  0  0  0  0
 22131  1  0  0  0  0
 23 44  1  0  0  0  0
 23 58  2  0  0  0  0
 24 55  1  0  0  0  0
 24 62  1  0  0  0  0
 24141  1  0  0  0  0
 53 25  1  1  0  0  0
 25 73  1  0  0  0  0
 25145  1  0  0  0  0
 61 26  1  6  0  0  0
 26 79  1  0  0  0  0
 26159  1  0  0  0  0
 70 27  1  1  0  0  0
 27 72  1  0  0  0  0
 27160  1  0  0  0  0
 28 58  1  0  0  0  0
 28161  1  0  0  0  0
 28162  1  0  0  0  0
 76 29  1  1  0  0  0
 29 83  1  0  0  0  0
 29172  1  0  0  0  0
 30 81  1  0  0  0  0
 30174  1  0  0  0  0
 30175  1  0  0  0  0
 31 33  1  0  0  0  0
 31 40  1  0  0  0  0
 31 89  1  0  0  0  0
 32 35  1  0  0  0  0
 32 47  1  0  0  0  0
 32 90  1  0  0  0  0
 33 41  1  0  0  0  0
 33 49  1  6  0  0  0
 33 91  1  0  0  0  0
 36 34  1  1  0  0  0
 37 34  1  6  0  0  0
 34 92  1  0  0  0  0
 34 93  1  0  0  0  0
 35 42  1  0  0  0  0
 35 50  1  1  0  0  0
 35 94  1  0  0  0  0
 36 43  1  0  0  0  0
 36 95  1  0  0  0  0
 37 44  1  0  0  0  0
 37 96  1  0  0  0  0
 38 39  1  0  0  0  0
 38 51  1  0  0  0  0
 38 97  1  6  0  0  0
 39 45  1  0  0  0  0
 39 52  1  6  0  0  0
 39 98  1  0  0  0  0
 41 60  1  0  0  0  0
 41100  1  0  0  0  0
 41101  1  0  0  0  0
 42 63  1  0  0  0  0
 42102  1  0  0  0  0
 42103  1  0  0  0  0
 44104  1  0  0  0  0
 44105  1  0  0  0  0
 45 65  1  0  0  0  0
 45107  1  0  0  0  0
 45108  1  0  0  0  0
 46 48  1  0  0  0  0
 46 62  1  0  0  0  0
 46109  1  0  0  0  0
 48 67  1  1  0  0  0
 48111  1  0  0  0  0
 49114  1  0  0  0  0
 49115  1  0  0  0  0
 49116  1  0  0  0  0
 50117  1  0  0  0  0
 50118  1  0  0  0  0
 50119  1  0  0  0  0
 52120  1  0  0  0  0
 52121  1  0  0  0  0
 52122  1  0  0  0  0
 53 56  1  0  0  0  0
 53 64  1  0  0  0  0
 53123  1  0  0  0  0
 54 66  1  0  0  0  0
 54 69  1  0  0  0  0
 54124  1  0  0  0  0
 55 57  1  0  0  0  0
 55 71  1  1  0  0  0
 55125  1  0  0  0  0
 59 61  1  0  0  0  0
 59 68  1  0  0  0  0
 59 75  1  1  0  0  0
 59127  1  0  0  0  0
 60128  1  0  0  0  0
 60129  1  0  0  0  0
 60130  1  0  0  0  0
 61 72  1  0  0  0  0
 61132  1  0  0  0  0
 63133  1  0  0  0  0
 63134  1  0  0  0  0
 63135  1  0  0  0  0
 64 74  1  0  0  0  0
 64136  1  0  0  0  0
 64137  1  0  0  0  0
 65138  1  0  0  0  0
 65139  1  0  0  0  0
 65140  1  0  0  0  0
 67142  1  0  0  0  0
 67143  1  0  0  0  0
 67144  1  0  0  0  0
 68 78  1  0  0  0  0
 68146  1  0  0  0  0
 68147  1  0  0  0  0
 69148  1  0  0  0  0
 69149  1  0  0  0  0
 70 73  1  0  0  0  0
 70 77  1  0  0  0  0
 70150  1  0  0  0  0
 71151  1  0  0  0  0
 71152  1  0  0  0  0
 71153  1  0  0  0  0
 74 81  1  0  0  0  0
 74154  1  0  0  0  0
 74155  1  0  0  0  0
 75156  1  0  0  0  0
 75157  1  0  0  0  0
 75158  1  0  0  0  0
 76 79  1  0  0  0  0
 76 80  1  0  0  0  0
 76163  1  0  0  0  0
 77167  1  0  0  0  0
 77168  1  0  0  0  0
 78164  1  0  0  0  0
 78165  1  0  0  0  0
 78166  1  0  0  0  0
 80 82  1  0  0  0  0
 80169  1  0  0  0  0
 80170  1  0  0  0  0
 82 84  2  0  0  0  0
 82 85  1  0  0  0  0
 83176  1  0  0  0  0
 83177  1  0  0  0  0
 83178  1  0  0  0  0
 84 86  1  0  0  0  0
 84179  1  0  0  0  0
 85 87  2  0  0  0  0
 85180  1  0  0  0  0
 86 88  2  0  0  0  0
 86181  1  0  0  0  0
 87 88  1  0  0  0  0
 87182  1  0  0  0  0
 88183  1  0  0  0  0
M  END
> <PUBCHEM_COMPOUND_CID>
86341926

> <PUBCHEM_COMPOUND_CANONICALIZED>
1

> <PUBCHEM_CACTVS_COMPLEXITY>
2450

> <PUBCHEM_CACTVS_HBOND_ACCEPTOR>
17

> <PUBCHEM_CACTVS_HBOND_DONOR>
16

> <PUBCHEM_CACTVS_ROTATABLE_BOND>
32

> <PUBCHEM_CACTVS_SUBSKEYS>
AAADcfB//AAAAAAAAAAAAAAAAAAAAQAAAAAwAAAAAAAAAAABAAAAHgAQCAAADTzhmAYzCILABgCoAiHSPAACAAEgAAAJiIGIAIiKcDaA2TGXYAAmtgKYiAeci4COAAAAAAAAAAAAAAAAAAAAAAAAAAAAAA==

> <PUBCHEM_IUPAC_OPENEYE_NAME>
(2R)-N-[(1R,2S)-1-[[(1S,2S)-1-[[(1S)-2-[[(3S,6S,9S,12R,13S)-6-[[(5S)-2-amino-4,5-dihydro-1H-imidazol-5-yl]methyl]-9,13-dimethyl-3-[(1S)-1-methylpropyl]-2,5,8,11-tetraoxo-1-oxa-4,7,10-triazacyclotridec-12-yl]amino]-1-(hydroxymethyl)-2-oxo-ethyl]carbamoyl]-2-methyl-butyl]carbamoyl]-2-methyl-butyl]-2-[[(2S)-3-hydroxy-2-[[(2S,3S)-3-methyl-2-[[(2R)-2-(methylamino)-3-phenyl-propanoyl]amino]pentanoyl]amino]propanoyl]amino]pentanediamide

> <PUBCHEM_IUPAC_CAS_NAME>
(2R)-N-[(2R,3S)-1-[[(2S,3S)-1-[[(2S)-1-[[(3S,6S,9S,12R,13S)-6-[[(5S)-2-amino-4,5-dihydro-1H-imidazol-5-yl]methyl]-3-[(2S)-butan-2-yl]-9,13-dimethyl-2,5,8,11-tetraoxo-1-oxa-4,7,10-triazacyclotridec-12-yl]amino]-3-hydroxy-1-oxopropan-2-yl]amino]-3-methyl-1-oxopentan-2-yl]amino]-3-methyl-1-oxopentan-2-yl]-2-[[(2S)-3-hydroxy-2-[[(2S,3S)-3-methyl-2-[[(2R)-2-(methylamino)-1-oxo-3-phenylpropyl]amino]-1-oxopentyl]amino]-1-oxopropyl]amino]pentanediamide

> <PUBCHEM_IUPAC_NAME>
(2R)-N-[(2R,3S)-1-[[(2S,3S)-1-[[(2S)-1-[[(3S,6S,9S,12R,13S)-6-[[(5S)-2-amino-4,5-dihydro-1H-imidazol-5-yl]methyl]-3-[(2S)-butan-2-yl]-9,13-dimethyl-2,5,8,11-tetraoxo-1-oxa-4,7,10-triazacyclotridec-12-yl]amino]-3-hydroxy-1-oxopropan-2-yl]amino]-3-methyl-1-oxopentan-2-yl]amino]-3-methyl-1-oxopentan-2-yl]-2-[[(2S)-3-hydroxy-2-[[(2S,3S)-3-methyl-2-[[(2R)-2-(methylamino)-3-phenylpropanoyl]amino]pentanoyl]amino]propanoyl]amino]pentanediamide

> <PUBCHEM_IUPAC_SYSTEMATIC_NAME>
(2R)-N-[(2R,3S)-1-[[(2S,3S)-1-[[(2S)-1-[[(3S,6S,9S,12R,13S)-6-[[(5S)-2-azanyl-4,5-dihydro-1H-imidazol-5-yl]methyl]-3-[(2S)-butan-2-yl]-9,13-dimethyl-2,5,8,11-tetrakis(oxidanylidene)-1-oxa-4,7,10-triazacyclotridec-12-yl]amino]-3-oxidanyl-1-oxidanylidene-propan-2-yl]amino]-3-methyl-1-oxidanylidene-pentan-2-yl]amino]-3-methyl-1-oxidanylidene-pentan-2-yl]-2-[[(2S)-2-[[(2S,3S)-3-methyl-2-[[(2R)-2-(methylamino)-3-phenyl-propanoyl]amino]pentanoyl]amino]-3-oxidanyl-propanoyl]amino]pentanediamide

> <PUBCHEM_IUPAC_TRADITIONAL_NAME>
(2R)-N-[(1R,2S)-1-[[(1S,2S)-1-[[(1S)-2-[[(3S,6S,9S,12R,13S)-6-[[(4S)-2-amino-2-imidazolin-4-yl]methyl]-2,5,8,11-tetraketo-9,13-dimethyl-3-[(1S)-1-methylpropyl]-1-oxa-4,7,10-triazacyclotridec-12-yl]amino]-2-keto-1-methylol-ethyl]carbamoyl]-2-methyl-butyl]carbamoyl]-2-methyl-butyl]-2-[[(2S)-3-hydroxy-2-[[(2S,3S)-3-methyl-2-[[(2R)-2-(methylamino)-3-phenyl-propanoyl]amino]pentanoyl]amino]propanoyl]amino]glutaramide

> <PUBCHEM_IUPAC_INCHI>
InChI=1S/C58H95N15O15/c1-12-28(5)42(70-49(79)37(61-11)23-34-19-17-16-18-20-34)53(83)67-39(26-74)51(81)65-36(21-22-41(59)76)48(78)69-44(30(7)14-3)55(85)71-43(29(6)13-2)54(84)68-40(27-75)52(82)73-46-33(10)88-57(87)45(31(8)15-4)72-50(80)38(24-35-25-62-58(60)64-35)66-47(77)32(9)63-56(46)86/h16-20,28-33,35-40,42-46,61,74-75H,12-15,21-27H2,1-11H3,(H2,59,76)(H,63,86)(H,65,81)(H,66,77)(H,67,83)(H,68,84)(H,69,78)(H,70,79)(H,71,85)(H,72,80)(H,73,82)(H3,60,62,64)/t28-,29-,30-,31-,32-,33-,35-,36+,37+,38-,39-,40-,42-,43-,44+,45-,46+/m0/s1

> <PUBCHEM_IUPAC_INCHIKEY>
LMBFAGIMSUYTBN-MPZNNTNKSA-N

> <PUBCHEM_XLOGP3_AA>
0.1

> <PUBCHEM_EXACT_MASS>
1241.713207

> <PUBCHEM_MOLECULAR_FORMULA>
C58H95N15O15

> <PUBCHEM_MOLECULAR_WEIGHT>
1242.4664

> <PUBCHEM_OPENEYE_CAN_SMILES>
CCC(C)C1C(=O)OC(C(C(=O)NC(C(=O)NC(C(=O)N1)CC2CN=C(N2)N)C)NC(=O)C(CO)NC(=O)C(C(C)CC)NC(=O)C(C(C)CC)NC(=O)C(CCC(=O)N)NC(=O)C(CO)NC(=O)C(C(C)CC)NC(=O)C(CC3=CC=CC=C3)NC)C

> <PUBCHEM_OPENEYE_ISO_SMILES>
CC[C@H](C)[C@H]1C(=O)O[C@H]([C@H](C(=O)N[C@H](C(=O)N[C@H](C(=O)N1)C[C@H]2CN=C(N2)N)C)NC(=O)[C@H](CO)NC(=O)[C@H]([C@@H](C)CC)NC(=O)[C@@H]([C@@H](C)CC)NC(=O)[C@@H](CCC(=O)N)NC(=O)[C@H](CO)NC(=O)[C@H]([C@@H](C)CC)NC(=O)[C@@H](CC3=CC=CC=C3)NC)C

> <PUBCHEM_CACTVS_TPSA>
463

> <PUBCHEM_MONOISOTOPIC_WEIGHT>
1241.713207

> <PUBCHEM_TOTAL_CHARGE>
0

> <PUBCHEM_HEAVY_ATOM_COUNT>
88

> <PUBCHEM_ATOM_DEF_STEREO_COUNT>
17

> <PUBCHEM_ATOM_UDEF_STEREO_COUNT>
0

> <PUBCHEM_BOND_DEF_STEREO_COUNT>
0

> <PUBCHEM_BOND_UDEF_STEREO_COUNT>
0

> <PUBCHEM_ISOTOPIC_ATOM_COUNT>
0

> <PUBCHEM_COMPONENT_COUNT>
1

> <PUBCHEM_CACTVS_TAUTO_COUNT>
1001

> <PUBCHEM_COORDINATE_TYPE>
1
5
255

> <PUBCHEM_BONDANNOTATIONS>
32  16  6
31  18  6
54  21  5
46  22  5
53  25  5
61  26  6
70  27  5
76  29  5
33  49  6
36  34  5
37  34  6
35  50  5
38  97  6
39  52  6
48  67  5
55  71  5
59  75  5
82  84  8
82  85  8
84  86  8
85  87  8
86  88  8
87  88  8

$$$$
