43009433
  CDK     1220141107

 51 53  0  0  0  0  0  0  0  0999 V2000
    4.5981   -5.0000    0.0000 Cl  0  0  0  0  0  0  0  0  0  0  0  0
    9.8744    2.1953    0.0000 S   0  0  0  0  0  0  0  0  0  0  0  0
    2.0000   -4.5000    0.0000 F   0  0  0  0  0  0  0  0  0  0  0  0
    2.3660   -3.1340    0.0000 F   0  0  0  0  0  0  0  0  0  0  0  0
    3.3660   -4.8660    0.0000 F   0  0  0  0  0  0  0  0  0  0  0  0
    8.0622    5.0000    0.0000 O   0  0  0  0  0  0  0  0  0  0  0  0
    6.3301   -1.0000    0.0000 O   0  0  0  0  0  0  0  0  0  0  0  0
    6.3301    1.0000    0.0000 N   0  0  3  0  0  0  0  0  0  0  0  0
    7.1962    3.5000    0.0000 N   0  0  0  0  0  0  0  0  0  0  0  0
    8.0622    2.0000    0.0000 N   0  0  0  0  0  0  0  0  0  0  0  0
    4.5981   -1.0000    0.0000 N   0  0  0  0  0  0  0  0  0  0  0  0
    6.3301    2.0000    0.0000 C   0  0  3  0  0  0  0  0  0  0  0  0
    7.1962    2.5000    0.0000 C   0  0  0  0  0  0  0  0  0  0  0  0
    5.4641    0.5000    0.0000 C   0  0  0  0  0  0  0  0  0  0  0  0
    5.4641    2.5000    0.0000 C   0  0  0  0  0  0  0  0  0  0  0  0
    8.9282    3.5000    0.0000 C   0  0  0  0  0  0  0  0  0  0  0  0
    8.9282    2.5000    0.0000 C   0  0  0  0  0  0  0  0  0  0  0  0
    9.8744    3.8047    0.0000 C   0  0  0  0  0  0  0  0  0  0  0  0
    7.1962    0.5000    0.0000 C   0  0  0  0  0  0  0  0  0  0  0  0
    8.0622    4.0000    0.0000 C   0  0  0  0  0  0  0  0  0  0  0  0
   10.4580    3.0000    0.0000 C   0  0  0  0  0  0  0  0  0  0  0  0
    5.4641   -0.5000    0.0000 C   0  0  0  0  0  0  0  0  0  0  0  0
   10.1851    4.7552    0.0000 C   0  0  0  0  0  0  0  0  0  0  0  0
   11.4580    3.0000    0.0000 C   0  0  0  0  0  0  0  0  0  0  0  0
    4.5981   -2.0000    0.0000 C   0  0  0  0  0  0  0  0  0  0  0  0
    3.7320   -2.5000    0.0000 C   0  0  0  0  0  0  0  0  0  0  0  0
    5.4641   -2.5000    0.0000 C   0  0  0  0  0  0  0  0  0  0  0  0
    3.7320   -3.5000    0.0000 C   0  0  0  0  0  0  0  0  0  0  0  0
    5.4641   -3.5000    0.0000 C   0  0  0  0  0  0  0  0  0  0  0  0
    4.5981   -4.0000    0.0000 C   0  0  0  0  0  0  0  0  0  0  0  0
    2.8660   -4.0000    0.0000 C   0  0  0  0  0  0  0  0  0  0  0  0
    6.8671    1.6900    0.0000 H   0  0  0  0  0  0  0  0  0  0  0  0
    5.2520    1.0826    0.0000 H   0  0  0  0  0  0  0  0  0  0  0  0
    4.8535    0.3923    0.0000 H   0  0  0  0  0  0  0  0  0  0  0  0
    5.7741    3.0369    0.0000 H   0  0  0  0  0  0  0  0  0  0  0  0
    4.9272    2.8100    0.0000 H   0  0  0  0  0  0  0  0  0  0  0  0
    5.1541    1.9631    0.0000 H   0  0  0  0  0  0  0  0  0  0  0  0
    6.6592    3.8100    0.0000 H   0  0  0  0  0  0  0  0  0  0  0  0
    6.8862   -0.0369    0.0000 H   0  0  0  0  0  0  0  0  0  0  0  0
    7.7331    0.1900    0.0000 H   0  0  0  0  0  0  0  0  0  0  0  0
    7.5062    1.0369    0.0000 H   0  0  0  0  0  0  0  0  0  0  0  0
   10.7744    4.5626    0.0000 H   0  0  0  0  0  0  0  0  0  0  0  0
   10.3777    5.3446    0.0000 H   0  0  0  0  0  0  0  0  0  0  0  0
    9.5958    4.9479    0.0000 H   0  0  0  0  0  0  0  0  0  0  0  0
   11.4580    2.3800    0.0000 H   0  0  0  0  0  0  0  0  0  0  0  0
   12.0780    3.0000    0.0000 H   0  0  0  0  0  0  0  0  0  0  0  0
   11.4580    3.6200    0.0000 H   0  0  0  0  0  0  0  0  0  0  0  0
    4.0611   -0.6900    0.0000 H   0  0  0  0  0  0  0  0  0  0  0  0
    3.1951   -2.1900    0.0000 H   0  0  0  0  0  0  0  0  0  0  0  0
    6.0010   -2.1900    0.0000 H   0  0  0  0  0  0  0  0  0  0  0  0
    6.0010   -3.8100    0.0000 H   0  0  0  0  0  0  0  0  0  0  0  0
  1 30  1  0  0  0  0 
  2 17  1  0  0  0  0 
  2 21  1  0  0  0  0 
  3 31  1  0  0  0  0 
  4 31  1  0  0  0  0 
  5 31  1  0  0  0  0 
  6 20  2  0  0  0  0 
  7 22  2  0  0  0  0 
  8 12  1  0  0  0  0 
  8 14  1  0  0  0  0 
  8 19  1  0  0  0  0 
  9 13  1  0  0  0  0 
  9 20  1  0  0  0  0 
  9 38  1  0  0  0  0 
 10 13  2  0  0  0  0 
 10 17  1  0  0  0  0 
 11 22  1  0  0  0  0 
 11 25  1  0  0  0  0 
 11 48  1  0  0  0  0 
 12 13  1  0  0  0  0 
 12 15  1  0  0  0  0 
 12 32  1  0  0  0  0 
 14 22  1  0  0  0  0 
 14 33  1  0  0  0  0 
 14 34  1  0  0  0  0 
 15 35  1  0  0  0  0 
 15 36  1  0  0  0  0 
 15 37  1  0  0  0  0 
 16 17  2  0  0  0  0 
 16 18  1  0  0  0  0 
 16 20  1  0  0  0  0 
 18 21  2  0  0  0  0 
 18 23  1  0  0  0  0 
 19 39  1  0  0  0  0 
 19 40  1  0  0  0  0 
 19 41  1  0  0  0  0 
 21 24  1  0  0  0  0 
 23 42  1  0  0  0  0 
 23 43  1  0  0  0  0 
 23 44  1  0  0  0  0 
 24 45  1  0  0  0  0 
 24 46  1  0  0  0  0 
 24 47  1  0  0  0  0 
 25 26  2  0  0  0  0 
 25 27  1  0  0  0  0 
 26 28  1  0  0  0  0 
 26 49  1  0  0  0  0 
 27 29  2  0  0  0  0 
 27 50  1  0  0  0  0 
 28 30  2  0  0  0  0 
 28 31  1  0  0  0  0 
 29 30  1  0  0  0  0 
 29 51  1  0  0  0  0 
M  END
> <cdk:Title>
43009433

> <cdk:Remark>
null

> <PUBCHEM_COMPOUND_CID>
43009433

> <PUBCHEM_COMPOUND_CANONICALIZED>
1

> <PUBCHEM_CACTVS_COMPLEXITY>
738

> <PUBCHEM_CACTVS_HBOND_ACCEPTOR>
8

> <PUBCHEM_CACTVS_HBOND_DONOR>
2

> <PUBCHEM_CACTVS_ROTATABLE_BOND>
5

> <PUBCHEM_CACTVS_SUBSKEYS>
AAADceB7sYBEAAAAAAAAAAAAAAAAASAAAAAwQAAAAAAAAEABwAAAHwYQAAAADCrB2DQzwYPAAAisAidydACDAIFlDxAJiBG4ZsgIYDrh37GUIYhglADoyUcYgAAOgABAQAABAAAAAICAAAIAAAAAAAAAAA==

> <PUBCHEM_IUPAC_OPENEYE_NAME>
N-[4-chloro-3-(trifluoromethyl)phenyl]-2-[1-(5,6-dimethyl-4-oxo-3H-thieno[2,3-d]pyrimidin-2-yl)ethyl-methyl-amino]acetamide

> <PUBCHEM_IUPAC_CAS_NAME>
N-[4-chloro-3-(trifluoromethyl)phenyl]-2-[1-(5,6-dimethyl-4-oxo-3H-thieno[2,3-d]pyrimidin-2-yl)ethyl-methylamino]acetamide

> <PUBCHEM_IUPAC_NAME>
N-[4-chloro-3-(trifluoromethyl)phenyl]-2-[1-(5,6-dimethyl-4-oxo-3H-thieno[2,3-d]pyrimidin-2-yl)ethyl-methylamino]acetamide

> <PUBCHEM_IUPAC_SYSTEMATIC_NAME>
N-[4-chloranyl-3-(trifluoromethyl)phenyl]-2-[1-(5,6-dimethyl-4-oxidanylidene-3H-thieno[2,3-d]pyrimidin-2-yl)ethyl-methyl-amino]ethanamide

> <PUBCHEM_IUPAC_TRADITIONAL_NAME>
N-[4-chloro-3-(trifluoromethyl)phenyl]-2-[1-(4-keto-5,6-dimethyl-3H-thieno[2,3-d]pyrimidin-2-yl)ethyl-methyl-amino]acetamide

> <PUBCHEM_IUPAC_INCHI>
InChI=1S/C20H20ClF3N4O2S/c1-9-11(3)31-19-16(9)18(30)26-17(27-19)10(2)28(4)8-15(29)25-12-5-6-14(21)13(7-12)20(22,23)24/h5-7,10H,8H2,1-4H3,(H,25,29)(H,26,27,30)

> <PUBCHEM_IUPAC_INCHIKEY>
BNZLIWCTLWMAES-UHFFFAOYSA-N

> <PUBCHEM_XLOGP3_AA>
4.4

> <PUBCHEM_EXACT_MASS>
472.094759

> <PUBCHEM_MOLECULAR_FORMULA>
C20H20ClF3N4O2S

> <PUBCHEM_MOLECULAR_WEIGHT>
472.91161

> <PUBCHEM_OPENEYE_CAN_SMILES>
CC1=C(SC2=C1C(=O)NC(=N2)C(C)N(C)CC(=O)NC3=CC(=C(C=C3)Cl)C(F)(F)F)C

> <PUBCHEM_OPENEYE_ISO_SMILES>
CC1=C(SC2=C1C(=O)NC(=N2)C(C)N(C)CC(=O)NC3=CC(=C(C=C3)Cl)C(F)(F)F)C

> <PUBCHEM_CACTVS_TPSA>
102

> <PUBCHEM_MONOISOTOPIC_WEIGHT>
472.094759

> <PUBCHEM_TOTAL_CHARGE>
0

> <PUBCHEM_HEAVY_ATOM_COUNT>
31

> <PUBCHEM_ATOM_DEF_STEREO_COUNT>
0

> <PUBCHEM_ATOM_UDEF_STEREO_COUNT>
1

> <PUBCHEM_BOND_DEF_STEREO_COUNT>
0

> <PUBCHEM_BOND_UDEF_STEREO_COUNT>
0

> <PUBCHEM_ISOTOPIC_ATOM_COUNT>
0

> <PUBCHEM_COMPONENT_COUNT>
1

> <PUBCHEM_CACTVS_TAUTO_COUNT>
27

> <PUBCHEM_COORDINATE_TYPE>
1

> <PUBCHEM_BONDANNOTATIONS>
10  13  8

$$$$
43009433
  CDK     1220141108

 51 53  0  0  0  0  0  0  0  0999 V2000
    4.5981   -5.0000    0.0000 Cl  0  0  0  0  0  0  0  0  0  0  0  0
    9.8744    2.1953    0.0000 S   0  0  0  0  0  0  0  0  0  0  0  0
    2.0000   -4.5000    0.0000 F   0  0  0  0  0  0  0  0  0  0  0  0
    2.3660   -3.1340    0.0000 F   0  0  0  0  0  0  0  0  0  0  0  0
    3.3660   -4.8660    0.0000 F   0  0  0  0  0  0  0  0  0  0  0  0
    8.0622    5.0000    0.0000 O   0  0  0  0  0  0  0  0  0  0  0  0
    6.3301   -1.0000    0.0000 O   0  0  0  0  0  0  0  0  0  0  0  0
    6.3301    1.0000    0.0000 N   0  0  3  0  0  0  0  0  0  0  0  0
    7.1962    3.5000    0.0000 N   0  0  0  0  0  0  0  0  0  0  0  0
    8.0622    2.0000    0.0000 N   0  0  0  0  0  0  0  0  0  0  0  0
    4.5981   -1.0000    0.0000 N   0  0  0  0  0  0  0  0  0  0  0  0
    6.3301    2.0000    0.0000 C   0  0  3  0  0  0  0  0  0  0  0  0
    7.1962    2.5000    0.0000 C   0  0  0  0  0  0  0  0  0  0  0  0
    5.4641    0.5000    0.0000 C   0  0  0  0  0  0  0  0  0  0  0  0
    5.4641    2.5000    0.0000 C   0  0  0  0  0  0  0  0  0  0  0  0
    8.9282    3.5000    0.0000 C   0  0  0  0  0  0  0  0  0  0  0  0
    8.9282    2.5000    0.0000 C   0  0  0  0  0  0  0  0  0  0  0  0
    9.8744    3.8047    0.0000 C   0  0  0  0  0  0  0  0  0  0  0  0
    7.1962    0.5000    0.0000 C   0  0  0  0  0  0  0  0  0  0  0  0
    8.0622    4.0000    0.0000 C   0  0  0  0  0  0  0  0  0  0  0  0
   10.4580    3.0000    0.0000 C   0  0  0  0  0  0  0  0  0  0  0  0
    5.4641   -0.5000    0.0000 C   0  0  0  0  0  0  0  0  0  0  0  0
   10.1851    4.7552    0.0000 C   0  0  0  0  0  0  0  0  0  0  0  0
   11.4580    3.0000    0.0000 C   0  0  0  0  0  0  0  0  0  0  0  0
    4.5981   -2.0000    0.0000 C   0  0  0  0  0  0  0  0  0  0  0  0
    3.7320   -2.5000    0.0000 C   0  0  0  0  0  0  0  0  0  0  0  0
    5.4641   -2.5000    0.0000 C   0  0  0  0  0  0  0  0  0  0  0  0
    3.7320   -3.5000    0.0000 C   0  0  0  0  0  0  0  0  0  0  0  0
    5.4641   -3.5000    0.0000 C   0  0  0  0  0  0  0  0  0  0  0  0
    4.5981   -4.0000    0.0000 C   0  0  0  0  0  0  0  0  0  0  0  0
    2.8660   -4.0000    0.0000 C   0  0  0  0  0  0  0  0  0  0  0  0
    6.8671    1.6900    0.0000 H   0  0  0  0  0  0  0  0  0  0  0  0
    5.2520    1.0826    0.0000 H   0  0  0  0  0  0  0  0  0  0  0  0
    4.8535    0.3923    0.0000 H   0  0  0  0  0  0  0  0  0  0  0  0
    5.7741    3.0369    0.0000 H   0  0  0  0  0  0  0  0  0  0  0  0
    4.9272    2.8100    0.0000 H   0  0  0  0  0  0  0  0  0  0  0  0
    5.1541    1.9631    0.0000 H   0  0  0  0  0  0  0  0  0  0  0  0
    6.6592    3.8100    0.0000 H   0  0  0  0  0  0  0  0  0  0  0  0
    6.8862   -0.0369    0.0000 H   0  0  0  0  0  0  0  0  0  0  0  0
    7.7331    0.1900    0.0000 H   0  0  0  0  0  0  0  0  0  0  0  0
    7.5062    1.0369    0.0000 H   0  0  0  0  0  0  0  0  0  0  0  0
   10.7744    4.5626    0.0000 H   0  0  0  0  0  0  0  0  0  0  0  0
   10.3777    5.3446    0.0000 H   0  0  0  0  0  0  0  0  0  0  0  0
    9.5958    4.9479    0.0000 H   0  0  0  0  0  0  0  0  0  0  0  0
   11.4580    2.3800    0.0000 H   0  0  0  0  0  0  0  0  0  0  0  0
   12.0780    3.0000    0.0000 H   0  0  0  0  0  0  0  0  0  0  0  0
   11.4580    3.6200    0.0000 H   0  0  0  0  0  0  0  0  0  0  0  0
    4.0611   -0.6900    0.0000 H   0  0  0  0  0  0  0  0  0  0  0  0
    3.1951   -2.1900    0.0000 H   0  0  0  0  0  0  0  0  0  0  0  0
    6.0010   -2.1900    0.0000 H   0  0  0  0  0  0  0  0  0  0  0  0
    6.0010   -3.8100    0.0000 H   0  0  0  0  0  0  0  0  0  0  0  0
  1 30  1  0  0  0  0 
  2 17  1  0  0  0  0 
  2 21  1  0  0  0  0 
  3 31  1  0  0  0  0 
  4 31  1  0  0  0  0 
  5 31  1  0  0  0  0 
  6 20  2  0  0  0  0 
  7 22  2  0  0  0  0 
  8 12  1  0  0  0  0 
  8 14  1  0  0  0  0 
  8 19  1  0  0  0  0 
  9 13  1  0  0  0  0 
  9 20  1  0  0  0  0 
  9 38  1  0  0  0  0 
 10 13  2  0  0  0  0 
 10 17  1  0  0  0  0 
 11 22  1  0  0  0  0 
 11 25  1  0  0  0  0 
 11 48  1  0  0  0  0 
 12 13  1  0  0  0  0 
 12 15  1  0  0  0  0 
 12 32  1  0  0  0  0 
 14 22  1  0  0  0  0 
 14 33  1  0  0  0  0 
 14 34  1  0  0  0  0 
 15 35  1  0  0  0  0 
 15 36  1  0  0  0  0 
 15 37  1  0  0  0  0 
 16 17  2  0  0  0  0 
 16 18  1  0  0  0  0 
 16 20  1  0  0  0  0 
 18 21  2  0  0  0  0 
 18 23  1  0  0  0  0 
 19 39  1  0  0  0  0 
 19 40  1  0  0  0  0 
 19 41  1  0  0  0  0 
 21 24  1  0  0  0  0 
 23 42  1  0  0  0  0 
 23 43  1  0  0  0  0 
 23 44  1  0  0  0  0 
 24 45  1  0  0  0  0 
 24 46  1  0  0  0  0 
 24 47  1  0  0  0  0 
 25 26  2  0  0  0  0 
 25 27  1  0  0  0  0 
 26 28  1  0  0  0  0 
 26 49  1  0  0  0  0 
 27 29  2  0  0  0  0 
 27 50  1  0  0  0  0 
 28 30  2  0  0  0  0 
 28 31  1  0  0  0  0 
 29 30  1  0  0  0  0 
 29 51  1  0  0  0  0 
M  END
> <cdk:Title>
43009433

> <cdk:Remark>
null

> <PUBCHEM_COMPOUND_CID>
43009433

> <PUBCHEM_COMPOUND_CANONICALIZED>
1

> <PUBCHEM_CACTVS_COMPLEXITY>
738

> <PUBCHEM_CACTVS_HBOND_ACCEPTOR>
8

> <PUBCHEM_CACTVS_HBOND_DONOR>
2

> <PUBCHEM_CACTVS_ROTATABLE_BOND>
5

> <PUBCHEM_CACTVS_SUBSKEYS>
AAADceB7sYBEAAAAAAAAAAAAAAAAASAAAAAwQAAAAAAAAEABwAAAHwYQAAAADCrB2DQzwYPAAAisAidydACDAIFlDxAJiBG4ZsgIYDrh37GUIYhglADoyUcYgAAOgABAQAABAAAAAICAAAIAAAAAAAAAAA==

> <PUBCHEM_IUPAC_OPENEYE_NAME>
N-[4-chloro-3-(trifluoromethyl)phenyl]-2-[1-(5,6-dimethyl-4-oxo-3H-thieno[2,3-d]pyrimidin-2-yl)ethyl-methyl-amino]acetamide

> <PUBCHEM_IUPAC_CAS_NAME>
N-[4-chloro-3-(trifluoromethyl)phenyl]-2-[1-(5,6-dimethyl-4-oxo-3H-thieno[2,3-d]pyrimidin-2-yl)ethyl-methylamino]acetamide

> <PUBCHEM_IUPAC_NAME>
N-[4-chloro-3-(trifluoromethyl)phenyl]-2-[1-(5,6-dimethyl-4-oxo-3H-thieno[2,3-d]pyrimidin-2-yl)ethyl-methylamino]acetamide

> <PUBCHEM_IUPAC_SYSTEMATIC_NAME>
N-[4-chloranyl-3-(trifluoromethyl)phenyl]-2-[1-(5,6-dimethyl-4-oxidanylidene-3H-thieno[2,3-d]pyrimidin-2-yl)ethyl-methyl-amino]ethanamide

> <PUBCHEM_IUPAC_TRADITIONAL_NAME>
N-[4-chloro-3-(trifluoromethyl)phenyl]-2-[1-(4-keto-5,6-dimethyl-3H-thieno[2,3-d]pyrimidin-2-yl)ethyl-methyl-amino]acetamide

> <PUBCHEM_IUPAC_INCHI>
InChI=1S/C20H20ClF3N4O2S/c1-9-11(3)31-19-16(9)18(30)26-17(27-19)10(2)28(4)8-15(29)25-12-5-6-14(21)13(7-12)20(22,23)24/h5-7,10H,8H2,1-4H3,(H,25,29)(H,26,27,30)

> <PUBCHEM_IUPAC_INCHIKEY>
BNZLIWCTLWMAES-UHFFFAOYSA-N

> <PUBCHEM_XLOGP3_AA>
4.4

> <PUBCHEM_EXACT_MASS>
472.094759

> <PUBCHEM_MOLECULAR_FORMULA>
C20H20ClF3N4O2S

> <PUBCHEM_MOLECULAR_WEIGHT>
472.91161

> <PUBCHEM_OPENEYE_CAN_SMILES>
CC1=C(SC2=C1C(=O)NC(=N2)C(C)N(C)CC(=O)NC3=CC(=C(C=C3)Cl)C(F)(F)F)C

> <PUBCHEM_OPENEYE_ISO_SMILES>
CC1=C(SC2=C1C(=O)NC(=N2)C(C)N(C)CC(=O)NC3=CC(=C(C=C3)Cl)C(F)(F)F)C

> <PUBCHEM_CACTVS_TPSA>
102

> <PUBCHEM_MONOISOTOPIC_WEIGHT>
472.094759

> <PUBCHEM_TOTAL_CHARGE>
0

> <PUBCHEM_HEAVY_ATOM_COUNT>
31

> <PUBCHEM_ATOM_DEF_STEREO_COUNT>
0

> <PUBCHEM_ATOM_UDEF_STEREO_COUNT>
1

> <PUBCHEM_BOND_DEF_STEREO_COUNT>
0

> <PUBCHEM_BOND_UDEF_STEREO_COUNT>
0

> <PUBCHEM_ISOTOPIC_ATOM_COUNT>
0

> <PUBCHEM_COMPONENT_COUNT>
1

> <PUBCHEM_CACTVS_TAUTO_COUNT>
27

> <PUBCHEM_COORDINATE_TYPE>
1

> <PUBCHEM_BONDANNOTATIONS>
10  13  8

$$$$
43009433
  CDK     1220141115

 51 53  0  0  0  0  0  0  0  0999 V2000
    4.5981   -5.0000    0.0000 Cl  0  0  0  0  0  0  0  0  0  0  0  0
    9.8744    2.1953    0.0000 S   0  0  0  0  0  0  0  0  0  0  0  0
    2.0000   -4.5000    0.0000 F   0  0  0  0  0  0  0  0  0  0  0  0
    2.3660   -3.1340    0.0000 F   0  0  0  0  0  0  0  0  0  0  0  0
    3.3660   -4.8660    0.0000 F   0  0  0  0  0  0  0  0  0  0  0  0
    8.0622    5.0000    0.0000 O   0  0  0  0  0  0  0  0  0  0  0  0
    6.3301   -1.0000    0.0000 O   0  0  0  0  0  0  0  0  0  0  0  0
    6.3301    1.0000    0.0000 N   0  0  3  0  0  0  0  0  0  0  0  0
    7.1962    3.5000    0.0000 N   0  0  0  0  0  0  0  0  0  0  0  0
    8.0622    2.0000    0.0000 N   0  0  0  0  0  0  0  0  0  0  0  0
    4.5981   -1.0000    0.0000 N   0  0  0  0  0  0  0  0  0  0  0  0
    6.3301    2.0000    0.0000 C   0  0  3  0  0  0  0  0  0  0  0  0
    7.1962    2.5000    0.0000 C   0  0  0  0  0  0  0  0  0  0  0  0
    5.4641    0.5000    0.0000 C   0  0  0  0  0  0  0  0  0  0  0  0
    5.4641    2.5000    0.0000 C   0  0  0  0  0  0  0  0  0  0  0  0
    8.9282    3.5000    0.0000 C   0  0  0  0  0  0  0  0  0  0  0  0
    8.9282    2.5000    0.0000 C   0  0  0  0  0  0  0  0  0  0  0  0
    9.8744    3.8047    0.0000 C   0  0  0  0  0  0  0  0  0  0  0  0
    7.1962    0.5000    0.0000 C   0  0  0  0  0  0  0  0  0  0  0  0
    8.0622    4.0000    0.0000 C   0  0  0  0  0  0  0  0  0  0  0  0
   10.4580    3.0000    0.0000 C   0  0  0  0  0  0  0  0  0  0  0  0
    5.4641   -0.5000    0.0000 C   0  0  0  0  0  0  0  0  0  0  0  0
   10.1851    4.7552    0.0000 C   0  0  0  0  0  0  0  0  0  0  0  0
   11.4580    3.0000    0.0000 C   0  0  0  0  0  0  0  0  0  0  0  0
    4.5981   -2.0000    0.0000 C   0  0  0  0  0  0  0  0  0  0  0  0
    3.7320   -2.5000    0.0000 C   0  0  0  0  0  0  0  0  0  0  0  0
    5.4641   -2.5000    0.0000 C   0  0  0  0  0  0  0  0  0  0  0  0
    3.7320   -3.5000    0.0000 C   0  0  0  0  0  0  0  0  0  0  0  0
    5.4641   -3.5000    0.0000 C   0  0  0  0  0  0  0  0  0  0  0  0
    4.5981   -4.0000    0.0000 C   0  0  0  0  0  0  0  0  0  0  0  0
    2.8660   -4.0000    0.0000 C   0  0  0  0  0  0  0  0  0  0  0  0
    6.8671    1.6900    0.0000 H   0  0  0  0  0  0  0  0  0  0  0  0
    5.2520    1.0826    0.0000 H   0  0  0  0  0  0  0  0  0  0  0  0
    4.8535    0.3923    0.0000 H   0  0  0  0  0  0  0  0  0  0  0  0
    5.7741    3.0369    0.0000 H   0  0  0  0  0  0  0  0  0  0  0  0
    4.9272    2.8100    0.0000 H   0  0  0  0  0  0  0  0  0  0  0  0
    5.1541    1.9631    0.0000 H   0  0  0  0  0  0  0  0  0  0  0  0
    6.6592    3.8100    0.0000 H   0  0  0  0  0  0  0  0  0  0  0  0
    6.8862   -0.0369    0.0000 H   0  0  0  0  0  0  0  0  0  0  0  0
    7.7331    0.1900    0.0000 H   0  0  0  0  0  0  0  0  0  0  0  0
    7.5062    1.0369    0.0000 H   0  0  0  0  0  0  0  0  0  0  0  0
   10.7744    4.5626    0.0000 H   0  0  0  0  0  0  0  0  0  0  0  0
   10.3777    5.3446    0.0000 H   0  0  0  0  0  0  0  0  0  0  0  0
    9.5958    4.9479    0.0000 H   0  0  0  0  0  0  0  0  0  0  0  0
   11.4580    2.3800    0.0000 H   0  0  0  0  0  0  0  0  0  0  0  0
   12.0780    3.0000    0.0000 H   0  0  0  0  0  0  0  0  0  0  0  0
   11.4580    3.6200    0.0000 H   0  0  0  0  0  0  0  0  0  0  0  0
    4.0611   -0.6900    0.0000 H   0  0  0  0  0  0  0  0  0  0  0  0
    3.1951   -2.1900    0.0000 H   0  0  0  0  0  0  0  0  0  0  0  0
    6.0010   -2.1900    0.0000 H   0  0  0  0  0  0  0  0  0  0  0  0
    6.0010   -3.8100    0.0000 H   0  0  0  0  0  0  0  0  0  0  0  0
  1 30  1  0  0  0  0 
  2 17  1  0  0  0  0 
  2 21  1  0  0  0  0 
  3 31  1  0  0  0  0 
  4 31  1  0  0  0  0 
  5 31  1  0  0  0  0 
  6 20  2  0  0  0  0 
  7 22  2  0  0  0  0 
  8 12  1  0  0  0  0 
  8 14  1  0  0  0  0 
  8 19  1  0  0  0  0 
  9 13  1  0  0  0  0 
  9 20  1  0  0  0  0 
  9 38  1  0  0  0  0 
 10 13  2  0  0  0  0 
 10 17  1  0  0  0  0 
 11 22  1  0  0  0  0 
 11 25  1  0  0  0  0 
 11 48  1  0  0  0  0 
 12 13  1  0  0  0  0 
 12 15  1  0  0  0  0 
 12 32  1  0  0  0  0 
 14 22  1  0  0  0  0 
 14 33  1  0  0  0  0 
 14 34  1  0  0  0  0 
 15 35  1  0  0  0  0 
 15 36  1  0  0  0  0 
 15 37  1  0  0  0  0 
 16 17  2  0  0  0  0 
 16 18  1  0  0  0  0 
 16 20  1  0  0  0  0 
 18 21  2  0  0  0  0 
 18 23  1  0  0  0  0 
 19 39  1  0  0  0  0 
 19 40  1  0  0  0  0 
 19 41  1  0  0  0  0 
 21 24  1  0  0  0  0 
 23 42  1  0  0  0  0 
 23 43  1  0  0  0  0 
 23 44  1  0  0  0  0 
 24 45  1  0  0  0  0 
 24 46  1  0  0  0  0 
 24 47  1  0  0  0  0 
 25 26  2  0  0  0  0 
 25 27  1  0  0  0  0 
 26 28  1  0  0  0  0 
 26 49  1  0  0  0  0 
 27 29  2  0  0  0  0 
 27 50  1  0  0  0  0 
 28 30  2  0  0  0  0 
 28 31  1  0  0  0  0 
 29 30  1  0  0  0  0 
 29 51  1  0  0  0  0 
M  END
> <cdk:Title>
43009433

> <cdk:Remark>
null

> <PUBCHEM_COMPOUND_CID>
43009433

> <PUBCHEM_COMPOUND_CANONICALIZED>
1

> <PUBCHEM_CACTVS_COMPLEXITY>
738

> <PUBCHEM_CACTVS_HBOND_ACCEPTOR>
8

> <PUBCHEM_CACTVS_HBOND_DONOR>
2

> <PUBCHEM_CACTVS_ROTATABLE_BOND>
5

> <PUBCHEM_CACTVS_SUBSKEYS>
AAADceB7sYBEAAAAAAAAAAAAAAAAASAAAAAwQAAAAAAAAEABwAAAHwYQAAAADCrB2DQzwYPAAAisAidydACDAIFlDxAJiBG4ZsgIYDrh37GUIYhglADoyUcYgAAOgABAQAABAAAAAICAAAIAAAAAAAAAAA==

> <PUBCHEM_IUPAC_OPENEYE_NAME>
N-[4-chloro-3-(trifluoromethyl)phenyl]-2-[1-(5,6-dimethyl-4-oxo-3H-thieno[2,3-d]pyrimidin-2-yl)ethyl-methyl-amino]acetamide

> <PUBCHEM_IUPAC_CAS_NAME>
N-[4-chloro-3-(trifluoromethyl)phenyl]-2-[1-(5,6-dimethyl-4-oxo-3H-thieno[2,3-d]pyrimidin-2-yl)ethyl-methylamino]acetamide

> <PUBCHEM_IUPAC_NAME>
N-[4-chloro-3-(trifluoromethyl)phenyl]-2-[1-(5,6-dimethyl-4-oxo-3H-thieno[2,3-d]pyrimidin-2-yl)ethyl-methylamino]acetamide

> <PUBCHEM_IUPAC_SYSTEMATIC_NAME>
N-[4-chloranyl-3-(trifluoromethyl)phenyl]-2-[1-(5,6-dimethyl-4-oxidanylidene-3H-thieno[2,3-d]pyrimidin-2-yl)ethyl-methyl-amino]ethanamide

> <PUBCHEM_IUPAC_TRADITIONAL_NAME>
N-[4-chloro-3-(trifluoromethyl)phenyl]-2-[1-(4-keto-5,6-dimethyl-3H-thieno[2,3-d]pyrimidin-2-yl)ethyl-methyl-amino]acetamide

> <PUBCHEM_IUPAC_INCHI>
InChI=1S/C20H20ClF3N4O2S/c1-9-11(3)31-19-16(9)18(30)26-17(27-19)10(2)28(4)8-15(29)25-12-5-6-14(21)13(7-12)20(22,23)24/h5-7,10H,8H2,1-4H3,(H,25,29)(H,26,27,30)

> <PUBCHEM_IUPAC_INCHIKEY>
BNZLIWCTLWMAES-UHFFFAOYSA-N

> <PUBCHEM_XLOGP3_AA>
4.4

> <PUBCHEM_EXACT_MASS>
472.094759

> <PUBCHEM_MOLECULAR_FORMULA>
C20H20ClF3N4O2S

> <PUBCHEM_MOLECULAR_WEIGHT>
472.91161

> <PUBCHEM_OPENEYE_CAN_SMILES>
CC1=C(SC2=C1C(=O)NC(=N2)C(C)N(C)CC(=O)NC3=CC(=C(C=C3)Cl)C(F)(F)F)C

> <PUBCHEM_OPENEYE_ISO_SMILES>
CC1=C(SC2=C1C(=O)NC(=N2)C(C)N(C)CC(=O)NC3=CC(=C(C=C3)Cl)C(F)(F)F)C

> <PUBCHEM_CACTVS_TPSA>
102

> <PUBCHEM_MONOISOTOPIC_WEIGHT>
472.094759

> <PUBCHEM_TOTAL_CHARGE>
0

> <PUBCHEM_HEAVY_ATOM_COUNT>
31

> <PUBCHEM_ATOM_DEF_STEREO_COUNT>
0

> <PUBCHEM_ATOM_UDEF_STEREO_COUNT>
1

> <PUBCHEM_BOND_DEF_STEREO_COUNT>
0

> <PUBCHEM_BOND_UDEF_STEREO_COUNT>
0

> <PUBCHEM_ISOTOPIC_ATOM_COUNT>
0

> <PUBCHEM_COMPONENT_COUNT>
1

> <PUBCHEM_CACTVS_TAUTO_COUNT>
27

> <PUBCHEM_COORDINATE_TYPE>
1

> <PUBCHEM_BONDANNOTATIONS>
10  13  8

$$$$
