66228920
  CDK     1220141107

 34 33  0  0  0  0  0  0  0  0999 V2000
    5.1350   -0.1900    0.0000 S   0  0  0  0  0  0  0  0  0  0  0  0
    6.8671    0.8100    0.0000 O   0  0  0  0  0  0  0  0  0  0  0  0
    8.5991    0.8100    0.0000 O   0  0  0  0  0  0  0  0  0  0  0  0
    2.5369   -0.6900    0.0000 N   0  0  0  0  0  0  0  0  0  0  0  0
    7.7331   -0.6900    0.0000 N   0  0  0  0  0  0  0  0  0  0  0  0
    9.4651   -0.6900    0.0000 N   0  0  0  0  0  0  0  0  0  0  0  0
    3.4030   -0.1900    0.0000 C   0  0  3  0  0  0  0  0  0  0  0  0
    3.4030    0.8100    0.0000 C   0  0  0  0  0  0  0  0  0  0  0  0
    4.2690   -0.6900    0.0000 C   0  0  0  0  0  0  0  0  0  0  0  0
    2.5369    1.3100    0.0000 C   0  0  0  0  0  0  0  0  0  0  0  0
    6.0010   -0.6900    0.0000 C   0  0  0  0  0  0  0  0  0  0  0  0
    6.8671   -0.1900    0.0000 C   0  0  0  0  0  0  0  0  0  0  0  0
   10.3312   -0.1900    0.0000 C   0  0  0  0  0  0  0  0  0  0  0  0
    8.5991   -0.1900    0.0000 C   0  0  0  0  0  0  0  0  0  0  0  0
   11.1972   -0.6900    0.0000 C   0  0  0  0  0  0  0  0  0  0  0  0
    3.4030   -0.8100    0.0000 H   0  0  0  0  0  0  0  0  0  0  0  0
    4.0135    0.7023    0.0000 H   0  0  0  0  0  0  0  0  0  0  0  0
    3.6150    1.3926    0.0000 H   0  0  0  0  0  0  0  0  0  0  0  0
    3.8705   -1.1650    0.0000 H   0  0  0  0  0  0  0  0  0  0  0  0
    4.6675   -1.1650    0.0000 H   0  0  0  0  0  0  0  0  0  0  0  0
    2.8469    1.8469    0.0000 H   0  0  0  0  0  0  0  0  0  0  0  0
    2.0000    1.6200    0.0000 H   0  0  0  0  0  0  0  0  0  0  0  0
    2.2269    0.7731    0.0000 H   0  0  0  0  0  0  0  0  0  0  0  0
    2.0000   -0.3800    0.0000 H   0  0  0  0  0  0  0  0  0  0  0  0
    2.5369   -1.3100    0.0000 H   0  0  0  0  0  0  0  0  0  0  0  0
    5.6025   -1.1650    0.0000 H   0  0  0  0  0  0  0  0  0  0  0  0
    6.3996   -1.1650    0.0000 H   0  0  0  0  0  0  0  0  0  0  0  0
    7.7331   -1.3100    0.0000 H   0  0  0  0  0  0  0  0  0  0  0  0
   10.7297    0.2849    0.0000 H   0  0  0  0  0  0  0  0  0  0  0  0
    9.9326    0.2849    0.0000 H   0  0  0  0  0  0  0  0  0  0  0  0
    9.4651   -1.3100    0.0000 H   0  0  0  0  0  0  0  0  0  0  0  0
   10.8872   -1.2269    0.0000 H   0  0  0  0  0  0  0  0  0  0  0  0
   11.7341   -1.0000    0.0000 H   0  0  0  0  0  0  0  0  0  0  0  0
   11.5072   -0.1531    0.0000 H   0  0  0  0  0  0  0  0  0  0  0  0
  1  9  1  0  0  0  0 
  1 11  1  0  0  0  0 
  2 12  2  0  0  0  0 
  3 14  2  0  0  0  0 
  4  7  1  0  0  0  0 
  4 24  1  0  0  0  0 
  4 25  1  0  0  0  0 
  5 12  1  0  0  0  0 
  5 14  1  0  0  0  0 
  5 28  1  0  0  0  0 
  6 13  1  0  0  0  0 
  6 14  1  0  0  0  0 
  6 31  1  0  0  0  0 
  7  8  1  0  0  0  0 
  7  9  1  0  0  0  0 
  7 16  1  0  0  0  0 
  8 10  1  0  0  0  0 
  8 17  1  0  0  0  0 
  8 18  1  0  0  0  0 
  9 19  1  0  0  0  0 
  9 20  1  0  0  0  0 
 10 21  1  0  0  0  0 
 10 22  1  0  0  0  0 
 10 23  1  0  0  0  0 
 11 12  1  0  0  0  0 
 11 26  1  0  0  0  0 
 11 27  1  0  0  0  0 
 13 15  1  0  0  0  0 
 13 29  1  0  0  0  0 
 13 30  1  0  0  0  0 
 15 32  1  0  0  0  0 
 15 33  1  0  0  0  0 
 15 34  1  0  0  0  0 
M  END
> <cdk:Title>
66228920

> <cdk:Remark>
null

> <PUBCHEM_COMPOUND_CID>
66228920

> <PUBCHEM_COMPOUND_CANONICALIZED>
1

> <PUBCHEM_CACTVS_COMPLEXITY>
212

> <PUBCHEM_CACTVS_HBOND_ACCEPTOR>
4

> <PUBCHEM_CACTVS_HBOND_DONOR>
3

> <PUBCHEM_CACTVS_ROTATABLE_BOND>
6

> <PUBCHEM_CACTVS_SUBSKEYS>
AAADceBzMABAAAAAAAAAAAAAAAAAAAAAAAAAAAAAAAAAAAAAAAAAHgQQAAAACCjFwASDAALAAAgIAAEQEAAAAAAAABAAAIAIAACAAAAgAAAAAAAIFyIgAAAAAAAAAAAAAAAAAAAAAAAAAAAAAAAAAAAAAA==

> <PUBCHEM_IUPAC_OPENEYE_NAME>
2-(2-aminobutylsulfanyl)-N-(ethylcarbamoyl)acetamide

> <PUBCHEM_IUPAC_CAS_NAME>
2-(2-aminobutylthio)-N-(ethylcarbamoyl)acetamide

> <PUBCHEM_IUPAC_NAME>
2-(2-aminobutylsulfanyl)-N-(ethylcarbamoyl)acetamide

> <PUBCHEM_IUPAC_SYSTEMATIC_NAME>
2-(2-azanylbutylsulfanyl)-N-(ethylcarbamoyl)ethanamide

> <PUBCHEM_IUPAC_TRADITIONAL_NAME>
2-(2-aminobutylthio)-N-(ethylcarbamoyl)acetamide

> <PUBCHEM_IUPAC_INCHI>
InChI=1S/C9H19N3O2S/c1-3-7(10)5-15-6-8(13)12-9(14)11-4-2/h7H,3-6,10H2,1-2H3,(H2,11,12,13,14)

> <PUBCHEM_IUPAC_INCHIKEY>
DMHPTFHITDYVLH-UHFFFAOYSA-N

> <PUBCHEM_XLOGP3_AA>
0.8

> <PUBCHEM_EXACT_MASS>
233.119798

> <PUBCHEM_MOLECULAR_FORMULA>
C9H19N3O2S

> <PUBCHEM_MOLECULAR_WEIGHT>
233.33106

> <PUBCHEM_OPENEYE_CAN_SMILES>
CCC(CSCC(=O)NC(=O)NCC)N

> <PUBCHEM_OPENEYE_ISO_SMILES>
CCC(CSCC(=O)NC(=O)NCC)N

> <PUBCHEM_CACTVS_TPSA>
110

> <PUBCHEM_MONOISOTOPIC_WEIGHT>
233.119798

> <PUBCHEM_TOTAL_CHARGE>
0

> <PUBCHEM_HEAVY_ATOM_COUNT>
15

> <PUBCHEM_ATOM_DEF_STEREO_COUNT>
0

> <PUBCHEM_ATOM_UDEF_STEREO_COUNT>
1

> <PUBCHEM_BOND_DEF_STEREO_COUNT>
0

> <PUBCHEM_BOND_UDEF_STEREO_COUNT>
0

> <PUBCHEM_ISOTOPIC_ATOM_COUNT>
0

> <PUBCHEM_COMPONENT_COUNT>
1

> <PUBCHEM_CACTVS_TAUTO_COUNT>
5

> <PUBCHEM_COORDINATE_TYPE>
1

> <PUBCHEM_BONDANNOTATIONS>
7  4  3

$$$$
66228920
  CDK     1220141108

 34 33  0  0  0  0  0  0  0  0999 V2000
    5.1350   -0.1900    0.0000 S   0  0  0  0  0  0  0  0  0  0  0  0
    6.8671    0.8100    0.0000 O   0  0  0  0  0  0  0  0  0  0  0  0
    8.5991    0.8100    0.0000 O   0  0  0  0  0  0  0  0  0  0  0  0
    2.5369   -0.6900    0.0000 N   0  0  0  0  0  0  0  0  0  0  0  0
    7.7331   -0.6900    0.0000 N   0  0  0  0  0  0  0  0  0  0  0  0
    9.4651   -0.6900    0.0000 N   0  0  0  0  0  0  0  0  0  0  0  0
    3.4030   -0.1900    0.0000 C   0  0  3  0  0  0  0  0  0  0  0  0
    3.4030    0.8100    0.0000 C   0  0  0  0  0  0  0  0  0  0  0  0
    4.2690   -0.6900    0.0000 C   0  0  0  0  0  0  0  0  0  0  0  0
    2.5369    1.3100    0.0000 C   0  0  0  0  0  0  0  0  0  0  0  0
    6.0010   -0.6900    0.0000 C   0  0  0  0  0  0  0  0  0  0  0  0
    6.8671   -0.1900    0.0000 C   0  0  0  0  0  0  0  0  0  0  0  0
   10.3312   -0.1900    0.0000 C   0  0  0  0  0  0  0  0  0  0  0  0
    8.5991   -0.1900    0.0000 C   0  0  0  0  0  0  0  0  0  0  0  0
   11.1972   -0.6900    0.0000 C   0  0  0  0  0  0  0  0  0  0  0  0
    3.4030   -0.8100    0.0000 H   0  0  0  0  0  0  0  0  0  0  0  0
    4.0135    0.7023    0.0000 H   0  0  0  0  0  0  0  0  0  0  0  0
    3.6150    1.3926    0.0000 H   0  0  0  0  0  0  0  0  0  0  0  0
    3.8705   -1.1650    0.0000 H   0  0  0  0  0  0  0  0  0  0  0  0
    4.6675   -1.1650    0.0000 H   0  0  0  0  0  0  0  0  0  0  0  0
    2.8469    1.8469    0.0000 H   0  0  0  0  0  0  0  0  0  0  0  0
    2.0000    1.6200    0.0000 H   0  0  0  0  0  0  0  0  0  0  0  0
    2.2269    0.7731    0.0000 H   0  0  0  0  0  0  0  0  0  0  0  0
    2.0000   -0.3800    0.0000 H   0  0  0  0  0  0  0  0  0  0  0  0
    2.5369   -1.3100    0.0000 H   0  0  0  0  0  0  0  0  0  0  0  0
    5.6025   -1.1650    0.0000 H   0  0  0  0  0  0  0  0  0  0  0  0
    6.3996   -1.1650    0.0000 H   0  0  0  0  0  0  0  0  0  0  0  0
    7.7331   -1.3100    0.0000 H   0  0  0  0  0  0  0  0  0  0  0  0
   10.7297    0.2849    0.0000 H   0  0  0  0  0  0  0  0  0  0  0  0
    9.9326    0.2849    0.0000 H   0  0  0  0  0  0  0  0  0  0  0  0
    9.4651   -1.3100    0.0000 H   0  0  0  0  0  0  0  0  0  0  0  0
   10.8872   -1.2269    0.0000 H   0  0  0  0  0  0  0  0  0  0  0  0
   11.7341   -1.0000    0.0000 H   0  0  0  0  0  0  0  0  0  0  0  0
   11.5072   -0.1531    0.0000 H   0  0  0  0  0  0  0  0  0  0  0  0
  1  9  1  0  0  0  0 
  1 11  1  0  0  0  0 
  2 12  2  0  0  0  0 
  3 14  2  0  0  0  0 
  4  7  1  0  0  0  0 
  4 24  1  0  0  0  0 
  4 25  1  0  0  0  0 
  5 12  1  0  0  0  0 
  5 14  1  0  0  0  0 
  5 28  1  0  0  0  0 
  6 13  1  0  0  0  0 
  6 14  1  0  0  0  0 
  6 31  1  0  0  0  0 
  7  8  1  0  0  0  0 
  7  9  1  0  0  0  0 
  7 16  1  0  0  0  0 
  8 10  1  0  0  0  0 
  8 17  1  0  0  0  0 
  8 18  1  0  0  0  0 
  9 19  1  0  0  0  0 
  9 20  1  0  0  0  0 
 10 21  1  0  0  0  0 
 10 22  1  0  0  0  0 
 10 23  1  0  0  0  0 
 11 12  1  0  0  0  0 
 11 26  1  0  0  0  0 
 11 27  1  0  0  0  0 
 13 15  1  0  0  0  0 
 13 29  1  0  0  0  0 
 13 30  1  0  0  0  0 
 15 32  1  0  0  0  0 
 15 33  1  0  0  0  0 
 15 34  1  0  0  0  0 
M  END
> <cdk:Title>
66228920

> <cdk:Remark>
null

> <PUBCHEM_COMPOUND_CID>
66228920

> <PUBCHEM_COMPOUND_CANONICALIZED>
1

> <PUBCHEM_CACTVS_COMPLEXITY>
212

> <PUBCHEM_CACTVS_HBOND_ACCEPTOR>
4

> <PUBCHEM_CACTVS_HBOND_DONOR>
3

> <PUBCHEM_CACTVS_ROTATABLE_BOND>
6

> <PUBCHEM_CACTVS_SUBSKEYS>
AAADceBzMABAAAAAAAAAAAAAAAAAAAAAAAAAAAAAAAAAAAAAAAAAHgQQAAAACCjFwASDAALAAAgIAAEQEAAAAAAAABAAAIAIAACAAAAgAAAAAAAIFyIgAAAAAAAAAAAAAAAAAAAAAAAAAAAAAAAAAAAAAA==

> <PUBCHEM_IUPAC_OPENEYE_NAME>
2-(2-aminobutylsulfanyl)-N-(ethylcarbamoyl)acetamide

> <PUBCHEM_IUPAC_CAS_NAME>
2-(2-aminobutylthio)-N-(ethylcarbamoyl)acetamide

> <PUBCHEM_IUPAC_NAME>
2-(2-aminobutylsulfanyl)-N-(ethylcarbamoyl)acetamide

> <PUBCHEM_IUPAC_SYSTEMATIC_NAME>
2-(2-azanylbutylsulfanyl)-N-(ethylcarbamoyl)ethanamide

> <PUBCHEM_IUPAC_TRADITIONAL_NAME>
2-(2-aminobutylthio)-N-(ethylcarbamoyl)acetamide

> <PUBCHEM_IUPAC_INCHI>
InChI=1S/C9H19N3O2S/c1-3-7(10)5-15-6-8(13)12-9(14)11-4-2/h7H,3-6,10H2,1-2H3,(H2,11,12,13,14)

> <PUBCHEM_IUPAC_INCHIKEY>
DMHPTFHITDYVLH-UHFFFAOYSA-N

> <PUBCHEM_XLOGP3_AA>
0.8

> <PUBCHEM_EXACT_MASS>
233.119798

> <PUBCHEM_MOLECULAR_FORMULA>
C9H19N3O2S

> <PUBCHEM_MOLECULAR_WEIGHT>
233.33106

> <PUBCHEM_OPENEYE_CAN_SMILES>
CCC(CSCC(=O)NC(=O)NCC)N

> <PUBCHEM_OPENEYE_ISO_SMILES>
CCC(CSCC(=O)NC(=O)NCC)N

> <PUBCHEM_CACTVS_TPSA>
110

> <PUBCHEM_MONOISOTOPIC_WEIGHT>
233.119798

> <PUBCHEM_TOTAL_CHARGE>
0

> <PUBCHEM_HEAVY_ATOM_COUNT>
15

> <PUBCHEM_ATOM_DEF_STEREO_COUNT>
0

> <PUBCHEM_ATOM_UDEF_STEREO_COUNT>
1

> <PUBCHEM_BOND_DEF_STEREO_COUNT>
0

> <PUBCHEM_BOND_UDEF_STEREO_COUNT>
0

> <PUBCHEM_ISOTOPIC_ATOM_COUNT>
0

> <PUBCHEM_COMPONENT_COUNT>
1

> <PUBCHEM_CACTVS_TAUTO_COUNT>
5

> <PUBCHEM_COORDINATE_TYPE>
1

> <PUBCHEM_BONDANNOTATIONS>
7  4  3

$$$$
66228920
  CDK     1220141115

 34 33  0  0  0  0  0  0  0  0999 V2000
    5.1350   -0.1900    0.0000 S   0  0  0  0  0  0  0  0  0  0  0  0
    6.8671    0.8100    0.0000 O   0  0  0  0  0  0  0  0  0  0  0  0
    8.5991    0.8100    0.0000 O   0  0  0  0  0  0  0  0  0  0  0  0
    2.5369   -0.6900    0.0000 N   0  0  0  0  0  0  0  0  0  0  0  0
    7.7331   -0.6900    0.0000 N   0  0  0  0  0  0  0  0  0  0  0  0
    9.4651   -0.6900    0.0000 N   0  0  0  0  0  0  0  0  0  0  0  0
    3.4030   -0.1900    0.0000 C   0  0  3  0  0  0  0  0  0  0  0  0
    3.4030    0.8100    0.0000 C   0  0  0  0  0  0  0  0  0  0  0  0
    4.2690   -0.6900    0.0000 C   0  0  0  0  0  0  0  0  0  0  0  0
    2.5369    1.3100    0.0000 C   0  0  0  0  0  0  0  0  0  0  0  0
    6.0010   -0.6900    0.0000 C   0  0  0  0  0  0  0  0  0  0  0  0
    6.8671   -0.1900    0.0000 C   0  0  0  0  0  0  0  0  0  0  0  0
   10.3312   -0.1900    0.0000 C   0  0  0  0  0  0  0  0  0  0  0  0
    8.5991   -0.1900    0.0000 C   0  0  0  0  0  0  0  0  0  0  0  0
   11.1972   -0.6900    0.0000 C   0  0  0  0  0  0  0  0  0  0  0  0
    3.4030   -0.8100    0.0000 H   0  0  0  0  0  0  0  0  0  0  0  0
    4.0135    0.7023    0.0000 H   0  0  0  0  0  0  0  0  0  0  0  0
    3.6150    1.3926    0.0000 H   0  0  0  0  0  0  0  0  0  0  0  0
    3.8705   -1.1650    0.0000 H   0  0  0  0  0  0  0  0  0  0  0  0
    4.6675   -1.1650    0.0000 H   0  0  0  0  0  0  0  0  0  0  0  0
    2.8469    1.8469    0.0000 H   0  0  0  0  0  0  0  0  0  0  0  0
    2.0000    1.6200    0.0000 H   0  0  0  0  0  0  0  0  0  0  0  0
    2.2269    0.7731    0.0000 H   0  0  0  0  0  0  0  0  0  0  0  0
    2.0000   -0.3800    0.0000 H   0  0  0  0  0  0  0  0  0  0  0  0
    2.5369   -1.3100    0.0000 H   0  0  0  0  0  0  0  0  0  0  0  0
    5.6025   -1.1650    0.0000 H   0  0  0  0  0  0  0  0  0  0  0  0
    6.3996   -1.1650    0.0000 H   0  0  0  0  0  0  0  0  0  0  0  0
    7.7331   -1.3100    0.0000 H   0  0  0  0  0  0  0  0  0  0  0  0
   10.7297    0.2849    0.0000 H   0  0  0  0  0  0  0  0  0  0  0  0
    9.9326    0.2849    0.0000 H   0  0  0  0  0  0  0  0  0  0  0  0
    9.4651   -1.3100    0.0000 H   0  0  0  0  0  0  0  0  0  0  0  0
   10.8872   -1.2269    0.0000 H   0  0  0  0  0  0  0  0  0  0  0  0
   11.7341   -1.0000    0.0000 H   0  0  0  0  0  0  0  0  0  0  0  0
   11.5072   -0.1531    0.0000 H   0  0  0  0  0  0  0  0  0  0  0  0
  1  9  1  0  0  0  0 
  1 11  1  0  0  0  0 
  2 12  2  0  0  0  0 
  3 14  2  0  0  0  0 
  4  7  1  0  0  0  0 
  4 24  1  0  0  0  0 
  4 25  1  0  0  0  0 
  5 12  1  0  0  0  0 
  5 14  1  0  0  0  0 
  5 28  1  0  0  0  0 
  6 13  1  0  0  0  0 
  6 14  1  0  0  0  0 
  6 31  1  0  0  0  0 
  7  8  1  0  0  0  0 
  7  9  1  0  0  0  0 
  7 16  1  0  0  0  0 
  8 10  1  0  0  0  0 
  8 17  1  0  0  0  0 
  8 18  1  0  0  0  0 
  9 19  1  0  0  0  0 
  9 20  1  0  0  0  0 
 10 21  1  0  0  0  0 
 10 22  1  0  0  0  0 
 10 23  1  0  0  0  0 
 11 12  1  0  0  0  0 
 11 26  1  0  0  0  0 
 11 27  1  0  0  0  0 
 13 15  1  0  0  0  0 
 13 29  1  0  0  0  0 
 13 30  1  0  0  0  0 
 15 32  1  0  0  0  0 
 15 33  1  0  0  0  0 
 15 34  1  0  0  0  0 
M  END
> <cdk:Title>
66228920

> <cdk:Remark>
null

> <PUBCHEM_COMPOUND_CID>
66228920

> <PUBCHEM_COMPOUND_CANONICALIZED>
1

> <PUBCHEM_CACTVS_COMPLEXITY>
212

> <PUBCHEM_CACTVS_HBOND_ACCEPTOR>
4

> <PUBCHEM_CACTVS_HBOND_DONOR>
3

> <PUBCHEM_CACTVS_ROTATABLE_BOND>
6

> <PUBCHEM_CACTVS_SUBSKEYS>
AAADceBzMABAAAAAAAAAAAAAAAAAAAAAAAAAAAAAAAAAAAAAAAAAHgQQAAAACCjFwASDAALAAAgIAAEQEAAAAAAAABAAAIAIAACAAAAgAAAAAAAIFyIgAAAAAAAAAAAAAAAAAAAAAAAAAAAAAAAAAAAAAA==

> <PUBCHEM_IUPAC_OPENEYE_NAME>
2-(2-aminobutylsulfanyl)-N-(ethylcarbamoyl)acetamide

> <PUBCHEM_IUPAC_CAS_NAME>
2-(2-aminobutylthio)-N-(ethylcarbamoyl)acetamide

> <PUBCHEM_IUPAC_NAME>
2-(2-aminobutylsulfanyl)-N-(ethylcarbamoyl)acetamide

> <PUBCHEM_IUPAC_SYSTEMATIC_NAME>
2-(2-azanylbutylsulfanyl)-N-(ethylcarbamoyl)ethanamide

> <PUBCHEM_IUPAC_TRADITIONAL_NAME>
2-(2-aminobutylthio)-N-(ethylcarbamoyl)acetamide

> <PUBCHEM_IUPAC_INCHI>
InChI=1S/C9H19N3O2S/c1-3-7(10)5-15-6-8(13)12-9(14)11-4-2/h7H,3-6,10H2,1-2H3,(H2,11,12,13,14)

> <PUBCHEM_IUPAC_INCHIKEY>
DMHPTFHITDYVLH-UHFFFAOYSA-N

> <PUBCHEM_XLOGP3_AA>
0.8

> <PUBCHEM_EXACT_MASS>
233.119798

> <PUBCHEM_MOLECULAR_FORMULA>
C9H19N3O2S

> <PUBCHEM_MOLECULAR_WEIGHT>
233.33106

> <PUBCHEM_OPENEYE_CAN_SMILES>
CCC(CSCC(=O)NC(=O)NCC)N

> <PUBCHEM_OPENEYE_ISO_SMILES>
CCC(CSCC(=O)NC(=O)NCC)N

> <PUBCHEM_CACTVS_TPSA>
110

> <PUBCHEM_MONOISOTOPIC_WEIGHT>
233.119798

> <PUBCHEM_TOTAL_CHARGE>
0

> <PUBCHEM_HEAVY_ATOM_COUNT>
15

> <PUBCHEM_ATOM_DEF_STEREO_COUNT>
0

> <PUBCHEM_ATOM_UDEF_STEREO_COUNT>
1

> <PUBCHEM_BOND_DEF_STEREO_COUNT>
0

> <PUBCHEM_BOND_UDEF_STEREO_COUNT>
0

> <PUBCHEM_ISOTOPIC_ATOM_COUNT>
0

> <PUBCHEM_COMPONENT_COUNT>
1

> <PUBCHEM_CACTVS_TAUTO_COUNT>
5

> <PUBCHEM_COORDINATE_TYPE>
1

> <PUBCHEM_BONDANNOTATIONS>
7  4  3

$$$$
