15796342
  CDK     0104150955

  4  3  0  0  0  0  0  0  0  0999 V2000
    3.7320    0.7500    0.0000 Br  0  0  0  0  0  0  0  0  0  0  0  0
    2.0000    0.7500    0.0000 F   0  0  0  0  0  0  0  0  0  0  0  0
    2.8660   -0.7500    0.0000 O   0  0  0  0  0  0  0  0  0  0  0  0
    2.8660    0.2500    0.0000 C   0  0  0  0  0  0  0  0  0  0  0  0
  1  4  1  0  0  0  0 
  2  4  1  0  0  0  0 
  3  4  2  0  0  0  0 
M  END
> <cdk:Title>
15796342

> <cdk:Remark>
null

> <PUBCHEM_COMPOUND_CID>
15796342

> <PUBCHEM_COMPOUND_CANONICALIZED>
1

> <PUBCHEM_CACTVS_COMPLEXITY>
35

> <PUBCHEM_CACTVS_HBOND_ACCEPTOR>
2

> <PUBCHEM_CACTVS_HBOND_DONOR>
0

> <PUBCHEM_CACTVS_ROTATABLE_BOND>
0

> <PUBCHEM_CACTVS_SUBSKEYS>
AAADcQAAIQAAEAAAAAAAAAAAAAAAAAAAAAAAAAAAAAAAAAAAAAAAAwBAAAAAAAAAAAAAAAAAAAAIAAAAAAAAAAAAAAAAAAAAAAAAAAAAAAAAAAAAAAAAAAAAAAAAAAAAAAAAAAAAAAAAAAAAAAAAAAAAAA==

> <PUBCHEM_IUPAC_OPENEYE_NAME>
carbonyl bromide fluoride

> <PUBCHEM_IUPAC_CAS_NAME>
carbonyl bromide fluoride

> <PUBCHEM_IUPAC_NAME>
carbonyl bromide fluoride

> <PUBCHEM_IUPAC_SYSTEMATIC_NAME>
carbonyl bromide fluoride

> <PUBCHEM_IUPAC_TRADITIONAL_NAME>
carbonyl bromide fluoride

> <PUBCHEM_IUPAC_INCHI>
InChI=1S/CBrFO/c2-1(3)4

> <PUBCHEM_IUPAC_INCHIKEY>
JFUBYQGSYLDFJH-UHFFFAOYSA-N

> <PUBCHEM_XLOGP3_AA>
1.4

> <PUBCHEM_EXACT_MASS>
125.911655

> <PUBCHEM_MOLECULAR_FORMULA>
CBrFO

> <PUBCHEM_MOLECULAR_WEIGHT>
126.912503

> <PUBCHEM_OPENEYE_CAN_SMILES>
C(=O)(F)Br

> <PUBCHEM_OPENEYE_ISO_SMILES>
C(=O)(F)Br

> <PUBCHEM_CACTVS_TPSA>
17.1

> <PUBCHEM_MONOISOTOPIC_WEIGHT>
125.911655

> <PUBCHEM_TOTAL_CHARGE>
0

> <PUBCHEM_HEAVY_ATOM_COUNT>
4

> <PUBCHEM_ATOM_DEF_STEREO_COUNT>
0

> <PUBCHEM_ATOM_UDEF_STEREO_COUNT>
0

> <PUBCHEM_BOND_DEF_STEREO_COUNT>
0

> <PUBCHEM_BOND_UDEF_STEREO_COUNT>
0

> <PUBCHEM_ISOTOPIC_ATOM_COUNT>
0

> <PUBCHEM_COMPONENT_COUNT>
1

> <PUBCHEM_CACTVS_TAUTO_COUNT>
1

> <PUBCHEM_COORDINATE_TYPE>
1

$$$$
