5325841
  CDK     0104150955

 13 13  0  0  0  0  0  0  0  0999 V2000
    4.2690    1.8100    0.0000 Cl  0  0  0  0  0  0  0  0  0  0  0  0
    2.5369   -1.1900    0.0000 O   0  0  0  0  0  0  0  0  0  0  0  0
    6.0010   -1.1900    0.0000 O   0  0  0  0  0  0  0  0  0  0  0  0
    4.2690   -1.1900    0.0000 N   0  0  0  0  0  0  0  0  0  0  0  0
    3.4030   -0.6900    0.0000 C   0  0  0  0  0  0  0  0  0  0  0  0
    3.4030    0.3100    0.0000 C   0  0  0  0  0  0  0  0  0  0  0  0
    5.1350   -0.6900    0.0000 C   0  0  0  0  0  0  0  0  0  0  0  0
    4.2690    0.8100    0.0000 C   0  0  0  0  0  0  0  0  0  0  0  0
    5.1350    0.3100    0.0000 C   0  0  0  0  0  0  0  0  0  0  0  0
    4.2690   -1.8100    0.0000 H   0  0  0  0  0  0  0  0  0  0  0  0
    2.8660    0.6200    0.0000 H   0  0  0  0  0  0  0  0  0  0  0  0
    5.6720    0.6200    0.0000 H   0  0  0  0  0  0  0  0  0  0  0  0
    2.0000   -0.8800    0.0000 H   0  0  0  0  0  0  0  0  0  0  0  0
  1  8  1  0  0  0  0 
  2  5  1  0  0  0  0 
  2 13  1  0  0  0  0 
  3  7  2  0  0  0  0 
  4  5  1  0  0  0  0 
  4  7  1  0  0  0  0 
  4 10  1  0  0  0  0 
  5  6  2  0  0  0  0 
  6  8  1  0  0  0  0 
  6 11  1  0  0  0  0 
  7  9  1  0  0  0  0 
  8  9  2  0  0  0  0 
  9 12  1  0  0  0  0 
M  END
> <cdk:Title>
5325841

> <cdk:Remark>
null

> <PUBCHEM_COMPOUND_CID>
5325841

> <PUBCHEM_COMPOUND_CANONICALIZED>
1

> <PUBCHEM_CACTVS_COMPLEXITY>
207

> <PUBCHEM_CACTVS_HBOND_ACCEPTOR>
2

> <PUBCHEM_CACTVS_HBOND_DONOR>
2

> <PUBCHEM_CACTVS_ROTATABLE_BOND>
0

> <PUBCHEM_CACTVS_SUBSKEYS>
AAADcYBiMAAEAAAAAAAAAAAAAAAAAAAAAAAgAAAAAAAAAAAAAAAAHgIQCAAACAKBgAAAAALAAgCIACFSUACAAAAAIgAACAAAAEEIAAAAAQAAAAAAEAAAgQAAAAAAAAAAAAAAAAAAAAAAAAAAAAAAAAAAAA==

> <PUBCHEM_IUPAC_OPENEYE_NAME>
4-chloro-6-hydroxy-1H-pyridin-2-one

> <PUBCHEM_IUPAC_CAS_NAME>
4-chloro-6-hydroxy-1H-pyridin-2-one

> <PUBCHEM_IUPAC_NAME>
4-chloro-6-hydroxy-1H-pyridin-2-one

> <PUBCHEM_IUPAC_SYSTEMATIC_NAME>
4-chloranyl-6-oxidanyl-1H-pyridin-2-one

> <PUBCHEM_IUPAC_TRADITIONAL_NAME>
4-chloro-6-hydroxy-2-pyridone

> <PUBCHEM_IUPAC_INCHI>
InChI=1S/C5H4ClNO2/c6-3-1-4(8)7-5(9)2-3/h1-2H,(H2,7,8,9)

> <PUBCHEM_IUPAC_INCHIKEY>
FXXCUCHTCFFAGU-UHFFFAOYSA-N

> <PUBCHEM_XLOGP3_AA>
0.4

> <PUBCHEM_EXACT_MASS>
144.993056

> <PUBCHEM_MOLECULAR_FORMULA>
C5H4ClNO2

> <PUBCHEM_MOLECULAR_WEIGHT>
145.54376

> <PUBCHEM_OPENEYE_CAN_SMILES>
C1=C(C=C(NC1=O)O)Cl

> <PUBCHEM_OPENEYE_ISO_SMILES>
C1=C(C=C(NC1=O)O)Cl

> <PUBCHEM_CACTVS_TPSA>
49.3

> <PUBCHEM_MONOISOTOPIC_WEIGHT>
144.993056

> <PUBCHEM_TOTAL_CHARGE>
0

> <PUBCHEM_HEAVY_ATOM_COUNT>
9

> <PUBCHEM_ATOM_DEF_STEREO_COUNT>
0

> <PUBCHEM_ATOM_UDEF_STEREO_COUNT>
0

> <PUBCHEM_BOND_DEF_STEREO_COUNT>
0

> <PUBCHEM_BOND_UDEF_STEREO_COUNT>
0

> <PUBCHEM_ISOTOPIC_ATOM_COUNT>
0

> <PUBCHEM_COMPONENT_COUNT>
1

> <PUBCHEM_CACTVS_TAUTO_COUNT>
5

> <PUBCHEM_COORDINATE_TYPE>
1

> <PUBCHEM_BONDANNOTATIONS>
4  5  8

$$$$
