7646972
  CDK     0202151413

 41 43  0  0  0  0  0  0  0  0999 V2000
   11.7337    0.6089    0.0000 Cl  0  0  0  0  0  0  0  0  0  0  0  0
    5.4921    0.8157    0.0000 S   0  0  0  0  0  0  0  0  0  0  0  0
    7.3942    0.1977    0.0000 O   0  0  0  0  0  0  0  0  0  0  0  0
    3.7320    0.5370    0.0000 N   0  0  0  0  0  0  0  0  0  0  0  0
    7.9295    1.8450    0.0000 N   0  0  0  0  0  0  0  0  0  0  0  0
    2.9230    1.1248    0.0000 N   0  0  0  0  0  0  0  0  0  0  0  0
    4.2320    2.0758    0.0000 N   0  0  0  0  0  0  0  0  0  0  0  0
    3.2320    2.0758    0.0000 N   0  0  0  0  0  0  0  0  0  0  0  0
    6.2353    1.4849    0.0000 C   0  0  1  0  0  0  0  0  0  0  0  0
    3.7320   -0.4630    0.0000 C   0  0  0  0  0  0  0  0  0  0  0  0
    2.8660   -0.9630    0.0000 C   0  0  0  0  0  0  0  0  0  0  0  0
    4.5411    1.1248    0.0000 C   0  0  0  0  0  0  0  0  0  0  0  0
    7.1863    1.1759    0.0000 C   0  0  0  0  0  0  0  0  0  0  0  0
    6.0274    2.4630    0.0000 C   0  0  0  0  0  0  0  0  0  0  0  0
    4.5981   -0.9630    0.0000 C   0  0  0  0  0  0  0  0  0  0  0  0
    2.8660   -1.9630    0.0000 C   0  0  0  0  0  0  0  0  0  0  0  0
    2.0000   -0.4630    0.0000 C   0  0  0  0  0  0  0  0  0  0  0  0
    8.8805    1.5360    0.0000 C   0  0  0  0  0  0  0  0  0  0  0  0
    4.5981   -1.9630    0.0000 C   0  0  0  0  0  0  0  0  0  0  0  0
    3.7320   -2.4630    0.0000 C   0  0  0  0  0  0  0  0  0  0  0  0
    9.0884    0.5578    0.0000 C   0  0  0  0  0  0  0  0  0  0  0  0
    9.6237    2.2051    0.0000 C   0  0  0  0  0  0  0  0  0  0  0  0
   10.0395    0.2488    0.0000 C   0  0  0  0  0  0  0  0  0  0  0  0
   10.5747    1.8961    0.0000 C   0  0  0  0  0  0  0  0  0  0  0  0
   10.7826    0.9179    0.0000 C   0  0  0  0  0  0  0  0  0  0  0  0
    5.6456    1.6765    0.0000 H   0  0  0  0  0  0  0  0  0  0  0  0
    6.6338    2.5919    0.0000 H   0  0  0  0  0  0  0  0  0  0  0  0
    5.8985    3.0695    0.0000 H   0  0  0  0  0  0  0  0  0  0  0  0
    5.4209    2.3341    0.0000 H   0  0  0  0  0  0  0  0  0  0  0  0
    5.1350   -0.6530    0.0000 H   0  0  0  0  0  0  0  0  0  0  0  0
    2.3291   -2.2730    0.0000 H   0  0  0  0  0  0  0  0  0  0  0  0
    7.8006    2.4514    0.0000 H   0  0  0  0  0  0  0  0  0  0  0  0
    2.3100    0.0739    0.0000 H   0  0  0  0  0  0  0  0  0  0  0  0
    1.4631   -0.1530    0.0000 H   0  0  0  0  0  0  0  0  0  0  0  0
    1.6900   -1.0000    0.0000 H   0  0  0  0  0  0  0  0  0  0  0  0
    5.1350   -2.2730    0.0000 H   0  0  0  0  0  0  0  0  0  0  0  0
    3.7320   -3.0830    0.0000 H   0  0  0  0  0  0  0  0  0  0  0  0
    8.6277    0.1430    0.0000 H   0  0  0  0  0  0  0  0  0  0  0  0
    9.4948    2.8116    0.0000 H   0  0  0  0  0  0  0  0  0  0  0  0
   10.1684   -0.3576    0.0000 H   0  0  0  0  0  0  0  0  0  0  0  0
   11.0355    2.3110    0.0000 H   0  0  0  0  0  0  0  0  0  0  0  0
  1 25  1  0  0  0  0 
  2  9  1  0  0  0  0 
  2 12  1  0  0  0  0 
  3 13  2  0  0  0  0 
  4  6  1  0  0  0  0 
  4 10  1  0  0  0  0 
  4 12  1  0  0  0  0 
  5 13  1  0  0  0  0 
  5 18  1  0  0  0  0 
  5 32  1  0  0  0  0 
  6  8  2  0  0  0  0 
  7  8  1  0  0  0  0 
  7 12  2  0  0  0  0 
  9 13  1  0  0  0  0 
  9 14  1  6  0  0  0 
  9 26  1  0  0  0  0 
 10 11  1  0  0  0  0 
 10 15  2  0  0  0  0 
 11 16  2  0  0  0  0 
 11 17  1  0  0  0  0 
 14 27  1  0  0  0  0 
 14 28  1  0  0  0  0 
 14 29  1  0  0  0  0 
 15 19  1  0  0  0  0 
 15 30  1  0  0  0  0 
 16 20  1  0  0  0  0 
 16 31  1  0  0  0  0 
 17 33  1  0  0  0  0 
 17 34  1  0  0  0  0 
 17 35  1  0  0  0  0 
 18 21  2  0  0  0  0 
 18 22  1  0  0  0  0 
 19 20  2  0  0  0  0 
 19 36  1  0  0  0  0 
 20 37  1  0  0  0  0 
 21 23  1  0  0  0  0 
 21 38  1  0  0  0  0 
 22 24  2  0  0  0  0 
 22 39  1  0  0  0  0 
 23 25  2  0  0  0  0 
 23 40  1  0  0  0  0 
 24 25  1  0  0  0  0 
 24 41  1  0  0  0  0 
M  END
> <cdk:Title>
7646972

> <cdk:Remark>
null

> <PUBCHEM_COMPOUND_CID>
7646972

> <PUBCHEM_COMPOUND_CANONICALIZED>
1

> <PUBCHEM_CACTVS_COMPLEXITY>
449

> <PUBCHEM_CACTVS_HBOND_ACCEPTOR>
5

> <PUBCHEM_CACTVS_HBOND_DONOR>
1

> <PUBCHEM_CACTVS_ROTATABLE_BOND>
5

> <PUBCHEM_CACTVS_SUBSKEYS>
AAADceB7oABEAAAAAAAAAAAAAAAAAWAAAAAwYAAAAAAAAAAB0AAAHgYYAAAADAqF2CCz0IbIAAiqAiVSdACCFCNhB5AdiAEAZoiIICLBm5GEIAhglALIyCcQgAAOAABAAAACAAAAAIAAAAQAAAAAAAAAAA==

> <PUBCHEM_IUPAC_OPENEYE_NAME>
(2R)-N-(4-chlorophenyl)-2-[1-(o-tolyl)tetrazol-5-yl]sulfanyl-propanamide

> <PUBCHEM_IUPAC_CAS_NAME>
(2R)-N-(4-chlorophenyl)-2-[[1-(2-methylphenyl)-5-tetrazolyl]thio]propanamide

> <PUBCHEM_IUPAC_NAME>
(2R)-N-(4-chlorophenyl)-2-[1-(2-methylphenyl)tetrazol-5-yl]sulfanylpropanamide

> <PUBCHEM_IUPAC_SYSTEMATIC_NAME>
(2R)-N-(4-chlorophenyl)-2-[[1-(2-methylphenyl)-1,2,3,4-tetrazol-5-yl]sulfanyl]propanamide

> <PUBCHEM_IUPAC_TRADITIONAL_NAME>
(2R)-N-(4-chlorophenyl)-2-[[1-(o-tolyl)tetrazol-5-yl]thio]propionamide

> <PUBCHEM_IUPAC_INCHI>
InChI=1S/C17H16ClN5OS/c1-11-5-3-4-6-15(11)23-17(20-21-22-23)25-12(2)16(24)19-14-9-7-13(18)8-10-14/h3-10,12H,1-2H3,(H,19,24)/t12-/m1/s1

> <PUBCHEM_IUPAC_INCHIKEY>
KOJHRGCXTMVWIU-GFCCVEGCSA-N

> <PUBCHEM_XLOGP3_AA>
4.4

> <PUBCHEM_EXACT_MASS>
373.076409

> <PUBCHEM_MOLECULAR_FORMULA>
C17H16ClN5OS

> <PUBCHEM_MOLECULAR_WEIGHT>
373.85984

> <PUBCHEM_OPENEYE_CAN_SMILES>
CC1=CC=CC=C1N2C(=NN=N2)SC(C)C(=O)NC3=CC=C(C=C3)Cl

> <PUBCHEM_OPENEYE_ISO_SMILES>
CC1=CC=CC=C1N2C(=NN=N2)S[C@H](C)C(=O)NC3=CC=C(C=C3)Cl

> <PUBCHEM_CACTVS_TPSA>
98

> <PUBCHEM_MONOISOTOPIC_WEIGHT>
373.076409

> <PUBCHEM_TOTAL_CHARGE>
0

> <PUBCHEM_HEAVY_ATOM_COUNT>
25

> <PUBCHEM_ATOM_DEF_STEREO_COUNT>
1

> <PUBCHEM_ATOM_UDEF_STEREO_COUNT>
0

> <PUBCHEM_BOND_DEF_STEREO_COUNT>
0

> <PUBCHEM_BOND_UDEF_STEREO_COUNT>
0

> <PUBCHEM_ISOTOPIC_ATOM_COUNT>
0

> <PUBCHEM_COMPONENT_COUNT>
1

> <PUBCHEM_CACTVS_TAUTO_COUNT>
3

> <PUBCHEM_COORDINATE_TYPE>
1

> <PUBCHEM_BONDANNOTATIONS>
10  11  8

$$$$
