29359790
  CDK     0104151054

 47 50  0  0  0  0  0  0  0  0999 V2000
    8.5206    2.7128    0.0000 S   0  0  0  0  0  0  0  0  0  0  0  0
    8.8312    3.6633    0.0000 O   0  0  0  0  0  0  0  0  0  0  0  0
    9.5206    2.7111    0.0000 O   0  0  0  0  0  0  0  0  0  0  0  0
    8.9030   -0.0832    0.0000 O   0  0  0  0  0  0  0  0  0  0  0  0
    4.3211   -0.1638    0.0000 O   0  0  0  0  0  0  0  0  0  0  0  0
    7.2566    0.4549    0.0000 N   0  0  0  0  0  0  0  0  0  0  0  0
    4.6783   -1.8586    0.0000 N   0  0  0  0  0  0  0  0  0  0  0  0
    6.2781    0.2487    0.0000 N   0  0  0  0  0  0  0  0  0  0  0  0
    7.5673    1.4054    0.0000 C   0  0  2  0  0  0  0  0  0  0  0  0
    8.5189    1.7128    0.0000 C   0  0  0  0  0  0  0  0  0  0  0  0
    6.9809    2.2154    0.0000 C   0  0  0  0  0  0  0  0  0  0  0  0
    7.5701    3.0234    0.0000 C   0  0  0  0  0  0  0  0  0  0  0  0
    5.2619   -2.6633    0.0000 C   0  0  1  0  0  0  0  0  0  0  0  0
    4.6783   -3.4680    0.0000 C   0  0  0  0  0  0  0  0  0  0  0  0
    7.9244   -0.2894    0.0000 C   0  0  0  0  0  0  0  0  0  0  0  0
    5.9674   -0.7018    0.0000 C   0  0  0  0  0  0  0  0  0  0  0  0
    7.6138   -1.2399    0.0000 C   0  0  0  0  0  0  0  0  0  0  0  0
    6.6353   -1.4461    0.0000 C   0  0  0  0  0  0  0  0  0  0  0  0
    3.7320   -2.1633    0.0000 C   0  0  0  0  0  0  0  0  0  0  0  0
    3.7320   -3.1633    0.0000 C   0  0  0  0  0  0  0  0  0  0  0  0
    4.9889   -0.9081    0.0000 C   0  0  0  0  0  0  0  0  0  0  0  0
    6.2619   -2.6633    0.0000 C   0  0  0  0  0  0  0  0  0  0  0  0
    2.8660   -1.6633    0.0000 C   0  0  0  0  0  0  0  0  0  0  0  0
    2.8660   -3.6633    0.0000 C   0  0  0  0  0  0  0  0  0  0  0  0
    2.0000   -2.1633    0.0000 C   0  0  0  0  0  0  0  0  0  0  0  0
    2.0000   -3.1633    0.0000 C   0  0  0  0  0  0  0  0  0  0  0  0
    6.9547    1.3095    0.0000 H   0  0  0  0  0  0  0  0  0  0  0  0
    8.6467    1.1061    0.0000 H   0  0  0  0  0  0  0  0  0  0  0  0
    9.1356    1.7765    0.0000 H   0  0  0  0  0  0  0  0  0  0  0  0
    6.5208    2.6311    0.0000 H   0  0  0  0  0  0  0  0  0  0  0  0
    6.5194    1.8014    0.0000 H   0  0  0  0  0  0  0  0  0  0  0  0
    7.8232    3.5894    0.0000 H   0  0  0  0  0  0  0  0  0  0  0  0
    7.0337    3.3344    0.0000 H   0  0  0  0  0  0  0  0  0  0  0  0
    5.5436   -2.1110    0.0000 H   0  0  0  0  0  0  0  0  0  0  0  0
    4.4272   -4.0350    0.0000 H   0  0  0  0  0  0  0  0  0  0  0  0
    5.2156   -3.7773    0.0000 H   0  0  0  0  0  0  0  0  0  0  0  0
    7.6344   -1.8596    0.0000 H   0  0  0  0  0  0  0  0  0  0  0  0
    8.2276   -1.3273    0.0000 H   0  0  0  0  0  0  0  0  0  0  0  0
    6.1089   -1.7738    0.0000 H   0  0  0  0  0  0  0  0  0  0  0  0
    6.8665   -2.0214    0.0000 H   0  0  0  0  0  0  0  0  0  0  0  0
    6.2619   -3.2833    0.0000 H   0  0  0  0  0  0  0  0  0  0  0  0
    6.8819   -2.6633    0.0000 H   0  0  0  0  0  0  0  0  0  0  0  0
    6.2619   -2.0433    0.0000 H   0  0  0  0  0  0  0  0  0  0  0  0
    2.8660   -1.0433    0.0000 H   0  0  0  0  0  0  0  0  0  0  0  0
    2.8660   -4.2833    0.0000 H   0  0  0  0  0  0  0  0  0  0  0  0
    1.4631   -1.8533    0.0000 H   0  0  0  0  0  0  0  0  0  0  0  0
    1.4631   -3.4733    0.0000 H   0  0  0  0  0  0  0  0  0  0  0  0
  1  2  2  0  0  0  0 
  1  3  2  0  0  0  0 
  1 10  1  0  0  0  0 
  1 12  1  0  0  0  0 
  4 15  2  0  0  0  0 
  5 21  2  0  0  0  0 
  6  8  1  0  0  0  0 
  9  6  1  1  0  0  0 
  6 15  1  0  0  0  0 
  7 13  1  0  0  0  0 
  7 19  1  0  0  0  0 
  7 21  1  0  0  0  0 
  8 16  2  0  0  0  0 
  9 10  1  0  0  0  0 
  9 11  1  0  0  0  0 
  9 27  1  0  0  0  0 
 10 28  1  0  0  0  0 
 10 29  1  0  0  0  0 
 11 12  1  0  0  0  0 
 11 30  1  0  0  0  0 
 11 31  1  0  0  0  0 
 12 32  1  0  0  0  0 
 12 33  1  0  0  0  0 
 13 14  1  0  0  0  0 
 13 22  1  6  0  0  0 
 13 34  1  0  0  0  0 
 14 20  1  0  0  0  0 
 14 35  1  0  0  0  0 
 14 36  1  0  0  0  0 
 15 17  1  0  0  0  0 
 16 18  1  0  0  0  0 
 16 21  1  0  0  0  0 
 17 18  1  0  0  0  0 
 17 37  1  0  0  0  0 
 17 38  1  0  0  0  0 
 18 39  1  0  0  0  0 
 18 40  1  0  0  0  0 
 19 20  1  0  0  0  0 
 19 23  2  0  0  0  0 
 20 24  2  0  0  0  0 
 22 41  1  0  0  0  0 
 22 42  1  0  0  0  0 
 22 43  1  0  0  0  0 
 23 25  1  0  0  0  0 
 23 44  1  0  0  0  0 
 24 26  1  0  0  0  0 
 24 45  1  0  0  0  0 
 25 26  2  0  0  0  0 
 25 46  1  0  0  0  0 
 26 47  1  0  0  0  0 
M  END
> <cdk:Title>
29359790

> <cdk:Remark>
null

> <PUBCHEM_COMPOUND_CID>
29359790

> <PUBCHEM_COMPOUND_CANONICALIZED>
1

> <PUBCHEM_CACTVS_COMPLEXITY>
742

> <PUBCHEM_CACTVS_HBOND_ACCEPTOR>
5

> <PUBCHEM_CACTVS_HBOND_DONOR>
0

> <PUBCHEM_CACTVS_ROTATABLE_BOND>
2

> <PUBCHEM_CACTVS_SUBSKEYS>
AAADceB7OABAAAAAAAAAAAAAAAAAAWJAAAAwQAAAAAAAAFgBAAAAHgQIAAAADCjF2ASywIMAAAqoAyVyUHDSAAAhAhAaiAE4ZIgIIDLgkZGEIAhgjgDoyAcYg4AOAAAAAAACAAAAAAAAAAQAAAAAAAAAAA==

> <PUBCHEM_IUPAC_OPENEYE_NAME>
2-[(3S)-1,1-dioxothiolan-3-yl]-6-[(2R)-2-methylindoline-1-carbonyl]-4,5-dihydropyridazin-3-one

> <PUBCHEM_IUPAC_CAS_NAME>
2-[(3S)-1,1-dioxo-3-thiolanyl]-6-[[(2R)-2-methyl-2,3-dihydroindol-1-yl]-oxomethyl]-4,5-dihydropyridazin-3-one

> <PUBCHEM_IUPAC_NAME>
2-[(3S)-1,1-dioxothiolan-3-yl]-6-[(2R)-2-methyl-2,3-dihydroindole-1-carbonyl]-4,5-dihydropyridazin-3-one

> <PUBCHEM_IUPAC_SYSTEMATIC_NAME>
2-[(3S)-1,1-bis(oxidanylidene)thiolan-3-yl]-6-[[(2R)-2-methyl-2,3-dihydroindol-1-yl]carbonyl]-4,5-dihydropyridazin-3-one

> <PUBCHEM_IUPAC_TRADITIONAL_NAME>
2-[(3S)-1,1-diketothiolan-3-yl]-6-[(2R)-2-methylindoline-1-carbonyl]-4,5-dihydropyridazin-3-one

> <PUBCHEM_IUPAC_INCHI>
InChI=1S/C18H21N3O4S/c1-12-10-13-4-2-3-5-16(13)20(12)18(23)15-6-7-17(22)21(19-15)14-8-9-26(24,25)11-14/h2-5,12,14H,6-11H2,1H3/t12-,14+/m1/s1

> <PUBCHEM_IUPAC_INCHIKEY>
SAPJJQXIEUCOJN-OCCSQVGLSA-N

> <PUBCHEM_XLOGP3_AA>
0.6

> <PUBCHEM_EXACT_MASS>
375.125277

> <PUBCHEM_MOLECULAR_FORMULA>
C18H21N3O4S

> <PUBCHEM_MOLECULAR_WEIGHT>
375.44204

> <PUBCHEM_OPENEYE_CAN_SMILES>
CC1CC2=CC=CC=C2N1C(=O)C3=NN(C(=O)CC3)C4CCS(=O)(=O)C4

> <PUBCHEM_OPENEYE_ISO_SMILES>
C[C@@H]1CC2=CC=CC=C2N1C(=O)C3=NN(C(=O)CC3)[C@H]4CCS(=O)(=O)C4

> <PUBCHEM_CACTVS_TPSA>
95.5

> <PUBCHEM_MONOISOTOPIC_WEIGHT>
375.125277

> <PUBCHEM_TOTAL_CHARGE>
0

> <PUBCHEM_HEAVY_ATOM_COUNT>
26

> <PUBCHEM_ATOM_DEF_STEREO_COUNT>
2

> <PUBCHEM_ATOM_UDEF_STEREO_COUNT>
0

> <PUBCHEM_BOND_DEF_STEREO_COUNT>
0

> <PUBCHEM_BOND_UDEF_STEREO_COUNT>
0

> <PUBCHEM_ISOTOPIC_ATOM_COUNT>
0

> <PUBCHEM_COMPONENT_COUNT>
1

> <PUBCHEM_CACTVS_TAUTO_COUNT>
2

> <PUBCHEM_COORDINATE_TYPE>
1

> <PUBCHEM_BONDANNOTATIONS>
13  22  6

$$$$
