18198587
  CDK     0104150955

 52 54  0  0  0  0  0  0  0  0999 V2000
    4.5506    3.4920    0.0000 S   0  0  0  0  0  0  0  0  0  0  0  0
    5.4641   -5.1012    0.0000 F   0  0  0  0  0  0  0  0  0  0  0  0
    6.3301   -3.6012    0.0000 F   0  0  0  0  0  0  0  0  0  0  0  0
    8.1667    3.3933    0.0000 O   0  0  0  0  0  0  0  0  0  0  0  0
    4.5981    2.3988    0.0000 O   0  0  0  0  0  0  0  0  0  0  0  0
    2.8660   -2.6012    0.0000 O   0  0  0  0  0  0  0  0  0  0  0  0
    4.5981   -3.6012    0.0000 O   0  0  0  0  0  0  0  0  0  0  0  0
    6.3301    2.3988    0.0000 N   0  0  0  0  0  0  0  0  0  0  0  0
    8.0622    2.3988    0.0000 C   0  0  3  0  0  0  0  0  0  0  0  0
    8.9757    1.9920    0.0000 C   0  0  0  0  0  0  0  0  0  0  0  0
    9.6448    2.7352    0.0000 C   0  0  0  0  0  0  0  0  0  0  0  0
    7.1962    1.8988    0.0000 C   0  0  0  0  0  0  0  0  0  0  0  0
    9.1448    3.6012    0.0000 C   0  0  0  0  0  0  0  0  0  0  0  0
    6.3301    3.3988    0.0000 C   0  0  0  0  0  0  0  0  0  0  0  0
    5.4641    1.8988    0.0000 C   0  0  0  0  0  0  0  0  0  0  0  0
    5.4641    3.8988    0.0000 C   0  0  0  0  0  0  0  0  0  0  0  0
    5.4641    0.8988    0.0000 C   0  0  0  0  0  0  0  0  0  0  0  0
    5.3596    4.8933    0.0000 C   0  0  0  0  0  0  0  0  0  0  0  0
    4.5981    0.3988    0.0000 C   0  0  0  0  0  0  0  0  0  0  0  0
    4.3814    5.1012    0.0000 C   0  0  0  0  0  0  0  0  0  0  0  0
    3.8814    4.2352    0.0000 C   0  0  0  0  0  0  0  0  0  0  0  0
    4.5981   -0.6012    0.0000 C   0  0  0  0  0  0  0  0  0  0  0  0
    3.7320   -1.1012    0.0000 C   0  0  0  0  0  0  0  0  0  0  0  0
    5.4641   -1.1012    0.0000 C   0  0  0  0  0  0  0  0  0  0  0  0
    3.7320   -2.1012    0.0000 C   0  0  0  0  0  0  0  0  0  0  0  0
    4.5981   -2.6012    0.0000 C   0  0  0  0  0  0  0  0  0  0  0  0
    5.4641   -2.1012    0.0000 C   0  0  0  0  0  0  0  0  0  0  0  0
    2.0000   -2.1012    0.0000 C   0  0  0  0  0  0  0  0  0  0  0  0
    5.4641   -4.1012    0.0000 C   0  0  0  0  0  0  0  0  0  0  0  0
    7.5422    2.7365    0.0000 H   0  0  0  0  0  0  0  0  0  0  0  0
    8.6657    1.4551    0.0000 H   0  0  0  0  0  0  0  0  0  0  0  0
    9.4773    1.6276    0.0000 H   0  0  0  0  0  0  0  0  0  0  0  0
   10.0597    2.2744    0.0000 H   0  0  0  0  0  0  0  0  0  0  0  0
   10.1464    3.0996    0.0000 H   0  0  0  0  0  0  0  0  0  0  0  0
    6.7976    1.4238    0.0000 H   0  0  0  0  0  0  0  0  0  0  0  0
    7.5947    1.4238    0.0000 H   0  0  0  0  0  0  0  0  0  0  0  0
    9.7112    3.8534    0.0000 H   0  0  0  0  0  0  0  0  0  0  0  0
    8.9533    4.1909    0.0000 H   0  0  0  0  0  0  0  0  0  0  0  0
    6.9407    3.2911    0.0000 H   0  0  0  0  0  0  0  0  0  0  0  0
    6.5422    3.9814    0.0000 H   0  0  0  0  0  0  0  0  0  0  0  0
    6.0010    0.5888    0.0000 H   0  0  0  0  0  0  0  0  0  0  0  0
    5.8203    5.3082    0.0000 H   0  0  0  0  0  0  0  0  0  0  0  0
    4.0611    0.7088    0.0000 H   0  0  0  0  0  0  0  0  0  0  0  0
    4.1292    5.6676    0.0000 H   0  0  0  0  0  0  0  0  0  0  0  0
    3.2648    4.1704    0.0000 H   0  0  0  0  0  0  0  0  0  0  0  0
    3.1951   -0.7912    0.0000 H   0  0  0  0  0  0  0  0  0  0  0  0
    6.0010   -0.7912    0.0000 H   0  0  0  0  0  0  0  0  0  0  0  0
    6.0010   -2.4112    0.0000 H   0  0  0  0  0  0  0  0  0  0  0  0
    2.3100   -1.5643    0.0000 H   0  0  0  0  0  0  0  0  0  0  0  0
    1.4631   -1.7912    0.0000 H   0  0  0  0  0  0  0  0  0  0  0  0
    1.6900   -2.6382    0.0000 H   0  0  0  0  0  0  0  0  0  0  0  0
    5.4641   -3.4812    0.0000 H   0  0  0  0  0  0  0  0  0  0  0  0
  1 16  1  0  0  0  0 
  1 21  1  0  0  0  0 
  2 29  1  0  0  0  0 
  3 29  1  0  0  0  0 
  4  9  1  0  0  0  0 
  4 13  1  0  0  0  0 
  5 15  2  0  0  0  0 
  6 25  1  0  0  0  0 
  6 28  1  0  0  0  0 
  7 26  1  0  0  0  0 
  7 29  1  0  0  0  0 
  8 12  1  0  0  0  0 
  8 14  1  0  0  0  0 
  8 15  1  0  0  0  0 
  9 10  1  0  0  0  0 
  9 12  1  0  0  0  0 
  9 30  1  0  0  0  0 
 10 11  1  0  0  0  0 
 10 31  1  0  0  0  0 
 10 32  1  0  0  0  0 
 11 13  1  0  0  0  0 
 11 33  1  0  0  0  0 
 11 34  1  0  0  0  0 
 12 35  1  0  0  0  0 
 12 36  1  0  0  0  0 
 13 37  1  0  0  0  0 
 13 38  1  0  0  0  0 
 14 16  1  0  0  0  0 
 14 39  1  0  0  0  0 
 14 40  1  0  0  0  0 
 15 17  1  0  0  0  0 
 16 18  2  0  0  0  0 
 17 19  2  0  0  0  0 
 17 41  1  0  0  0  0 
 18 20  1  0  0  0  0 
 18 42  1  0  0  0  0 
 19 22  1  0  0  0  0 
 19 43  1  0  0  0  0 
 20 21  2  0  0  0  0 
 20 44  1  0  0  0  0 
 21 45  1  0  0  0  0 
 22 23  2  0  0  0  0 
 22 24  1  0  0  0  0 
 23 25  1  0  0  0  0 
 23 46  1  0  0  0  0 
 24 27  2  0  0  0  0 
 24 47  1  0  0  0  0 
 25 26  2  0  0  0  0 
 26 27  1  0  0  0  0 
 27 48  1  0  0  0  0 
 28 49  1  0  0  0  0 
 28 50  1  0  0  0  0 
 28 51  1  0  0  0  0 
 29 52  1  0  0  0  0 
M  END
> <cdk:Title>
18198587

> <cdk:Remark>
null

> <PUBCHEM_COMPOUND_CID>
18198587

> <PUBCHEM_COMPOUND_CANONICALIZED>
1

> <PUBCHEM_CACTVS_COMPLEXITY>
551

> <PUBCHEM_CACTVS_HBOND_ACCEPTOR>
7

> <PUBCHEM_CACTVS_HBOND_DONOR>
0

> <PUBCHEM_CACTVS_ROTATABLE_BOND>
9

> <PUBCHEM_CACTVS_SUBSKEYS>
AAADceB6OYBAAAAAAAAAAAAAAAAAASJAAAAwAAAAAAAAAAABwAAAHwQAAAAADBTl2BayB4MABAiMAiFSEACDCIAgKBBIiBgOjMgPJiKksRuHMCpkxhG6qYeQ0BIOIAABAAAAQABAAAIAAACAAAAAAAAAAA==

> <PUBCHEM_IUPAC_OPENEYE_NAME>
(E)-3-[4-(difluoromethoxy)-3-methoxy-phenyl]-N-(tetrahydrofuran-2-ylmethyl)-N-(2-thienylmethyl)prop-2-enamide

> <PUBCHEM_IUPAC_CAS_NAME>
(E)-3-[4-(difluoromethoxy)-3-methoxyphenyl]-N-(2-oxolanylmethyl)-N-(thiophen-2-ylmethyl)-2-propenamide

> <PUBCHEM_IUPAC_NAME>
(E)-3-[4-(difluoromethoxy)-3-methoxyphenyl]-N-(oxolan-2-ylmethyl)-N-(thiophen-2-ylmethyl)prop-2-enamide

> <PUBCHEM_IUPAC_SYSTEMATIC_NAME>
(E)-3-[4-[bis(fluoranyl)methoxy]-3-methoxy-phenyl]-N-(oxolan-2-ylmethyl)-N-(thiophen-2-ylmethyl)prop-2-enamide

> <PUBCHEM_IUPAC_TRADITIONAL_NAME>
(E)-3-[4-(difluoromethoxy)-3-methoxy-phenyl]-N-(tetrahydrofurfuryl)-N-(2-thenyl)acrylamide

> <PUBCHEM_IUPAC_INCHI>
InChI=1S/C21H23F2NO4S/c1-26-19-12-15(6-8-18(19)28-21(22)23)7-9-20(25)24(13-16-4-2-10-27-16)14-17-5-3-11-29-17/h3,5-9,11-12,16,21H,2,4,10,13-14H2,1H3/b9-7+

> <PUBCHEM_IUPAC_INCHIKEY>
MEDMJJXMBRGRIP-VQHVLOKHSA-N

> <PUBCHEM_XLOGP3_AA>
4.3

> <PUBCHEM_EXACT_MASS>
423.131586

> <PUBCHEM_MOLECULAR_FORMULA>
C21H23F2NO4S

> <PUBCHEM_MOLECULAR_WEIGHT>
423.473426

> <PUBCHEM_OPENEYE_CAN_SMILES>
COC1=C(C=CC(=C1)C=CC(=O)N(CC2CCCO2)CC3=CC=CS3)OC(F)F

> <PUBCHEM_OPENEYE_ISO_SMILES>
COC1=C(C=CC(=C1)/C=C/C(=O)N(CC2CCCO2)CC3=CC=CS3)OC(F)F

> <PUBCHEM_CACTVS_TPSA>
76.2

> <PUBCHEM_MONOISOTOPIC_WEIGHT>
423.131586

> <PUBCHEM_TOTAL_CHARGE>
0

> <PUBCHEM_HEAVY_ATOM_COUNT>
29

> <PUBCHEM_ATOM_DEF_STEREO_COUNT>
0

> <PUBCHEM_ATOM_UDEF_STEREO_COUNT>
1

> <PUBCHEM_BOND_DEF_STEREO_COUNT>
1

> <PUBCHEM_BOND_UDEF_STEREO_COUNT>
0

> <PUBCHEM_ISOTOPIC_ATOM_COUNT>
0

> <PUBCHEM_COMPONENT_COUNT>
1

> <PUBCHEM_CACTVS_TAUTO_COUNT>
1

> <PUBCHEM_COORDINATE_TYPE>
1

> <PUBCHEM_BONDANNOTATIONS>
1  16  8

$$$$
