16523035
  CDK     0224151638

 52 54  0  0  0  0  0  0  0  0999 V2000
    8.9282   -6.0000    0.0000 Br  0  0  0  0  0  0  0  0  0  0  0  0
    3.7320    3.0000    0.0000 S   0  0  0  0  0  0  0  0  0  0  0  0
    4.7320    3.0000    0.0000 O   0  0  0  0  0  0  0  0  0  0  0  0
    2.7320    3.0000    0.0000 O   0  0  0  0  0  0  0  0  0  0  0  0
    6.3301   -2.5000    0.0000 O   0  0  0  0  0  0  0  0  0  0  0  0
    4.5981   -1.5000    0.0000 O   0  0  0  0  0  0  0  0  0  0  0  0
    8.0622   -2.5000    0.0000 O   0  0  0  0  0  0  0  0  0  0  0  0
    3.7320    4.0000    0.0000 N   0  0  0  0  0  0  0  0  0  0  0  0
    5.4641    0.0000    0.0000 N   0  0  0  0  0  0  0  0  0  0  0  0
    6.3301   -5.5000    0.0000 N   0  0  0  0  0  0  0  0  0  0  0  0
    4.5981    4.5000    0.0000 C   0  0  0  0  0  0  0  0  0  0  0  0
    2.8660    4.5000    0.0000 C   0  0  0  0  0  0  0  0  0  0  0  0
    2.8660    5.5000    0.0000 C   0  0  0  0  0  0  0  0  0  0  0  0
    4.5981    5.5000    0.0000 C   0  0  0  0  0  0  0  0  0  0  0  0
    3.7320    6.0000    0.0000 C   0  0  0  0  0  0  0  0  0  0  0  0
    3.7320    2.0000    0.0000 C   0  0  0  0  0  0  0  0  0  0  0  0
    2.8660    1.5000    0.0000 C   0  0  0  0  0  0  0  0  0  0  0  0
    4.5981    1.5000    0.0000 C   0  0  0  0  0  0  0  0  0  0  0  0
    4.5981    0.5000    0.0000 C   0  0  0  0  0  0  0  0  0  0  0  0
    2.8660    0.5000    0.0000 C   0  0  0  0  0  0  0  0  0  0  0  0
    2.0000    2.0000    0.0000 C   0  0  0  0  0  0  0  0  0  0  0  0
    3.7320    0.0000    0.0000 C   0  0  0  0  0  0  0  0  0  0  0  0
    5.4641   -1.0000    0.0000 C   0  0  0  0  0  0  0  0  0  0  0  0
    6.3301   -1.5000    0.0000 C   0  0  0  0  0  0  0  0  0  0  0  0
    7.1962   -3.0000    0.0000 C   0  0  0  0  0  0  0  0  0  0  0  0
    7.1962   -4.0000    0.0000 C   0  0  0  0  0  0  0  0  0  0  0  0
    8.0622   -4.5000    0.0000 C   0  0  0  0  0  0  0  0  0  0  0  0
    6.3301   -4.5000    0.0000 C   0  0  0  0  0  0  0  0  0  0  0  0
    8.0622   -5.5000    0.0000 C   0  0  0  0  0  0  0  0  0  0  0  0
    7.1962   -6.0000    0.0000 C   0  0  0  0  0  0  0  0  0  0  0  0
    4.8101    3.9174    0.0000 H   0  0  0  0  0  0  0  0  0  0  0  0
    5.2087    4.6077    0.0000 H   0  0  0  0  0  0  0  0  0  0  0  0
    2.2554    4.6077    0.0000 H   0  0  0  0  0  0  0  0  0  0  0  0
    2.6540    3.9174    0.0000 H   0  0  0  0  0  0  0  0  0  0  0  0
    5.2087    5.3923    0.0000 H   0  0  0  0  0  0  0  0  0  0  0  0
    4.8101    6.0826    0.0000 H   0  0  0  0  0  0  0  0  0  0  0  0
    2.6540    6.0826    0.0000 H   0  0  0  0  0  0  0  0  0  0  0  0
    2.2554    5.3923    0.0000 H   0  0  0  0  0  0  0  0  0  0  0  0
    4.1306    6.4750    0.0000 H   0  0  0  0  0  0  0  0  0  0  0  0
    3.3335    6.4750    0.0000 H   0  0  0  0  0  0  0  0  0  0  0  0
    5.1350    1.8100    0.0000 H   0  0  0  0  0  0  0  0  0  0  0  0
    2.3291    0.1900    0.0000 H   0  0  0  0  0  0  0  0  0  0  0  0
    2.3100    2.5369    0.0000 H   0  0  0  0  0  0  0  0  0  0  0  0
    1.4631    2.3100    0.0000 H   0  0  0  0  0  0  0  0  0  0  0  0
    1.6900    1.4631    0.0000 H   0  0  0  0  0  0  0  0  0  0  0  0
    3.7320   -0.6200    0.0000 H   0  0  0  0  0  0  0  0  0  0  0  0
    6.0010    0.3100    0.0000 H   0  0  0  0  0  0  0  0  0  0  0  0
    6.9407   -1.6077    0.0000 H   0  0  0  0  0  0  0  0  0  0  0  0
    6.5422   -0.9174    0.0000 H   0  0  0  0  0  0  0  0  0  0  0  0
    8.5991   -4.1900    0.0000 H   0  0  0  0  0  0  0  0  0  0  0  0
    5.7932   -4.1900    0.0000 H   0  0  0  0  0  0  0  0  0  0  0  0
    7.1962   -6.6200    0.0000 H   0  0  0  0  0  0  0  0  0  0  0  0
  1 29  1  0  0  0  0 
  2  3  2  0  0  0  0 
  2  4  2  0  0  0  0 
  2  8  1  0  0  0  0 
  2 16  1  0  0  0  0 
  5 24  1  0  0  0  0 
  5 25  1  0  0  0  0 
  6 23  2  0  0  0  0 
  7 25  2  0  0  0  0 
  8 11  1  0  0  0  0 
  8 12  1  0  0  0  0 
  9 19  1  0  0  0  0 
  9 23  1  0  0  0  0 
  9 47  1  0  0  0  0 
 10 28  2  0  0  0  0 
 10 30  1  0  0  0  0 
 11 14  1  0  0  0  0 
 11 31  1  0  0  0  0 
 11 32  1  0  0  0  0 
 12 13  1  0  0  0  0 
 12 33  1  0  0  0  0 
 12 34  1  0  0  0  0 
 13 15  1  0  0  0  0 
 13 37  1  0  0  0  0 
 13 38  1  0  0  0  0 
 14 15  1  0  0  0  0 
 14 35  1  0  0  0  0 
 14 36  1  0  0  0  0 
 15 39  1  0  0  0  0 
 15 40  1  0  0  0  0 
 16 17  2  0  0  0  0 
 16 18  1  0  0  0  0 
 17 20  1  0  0  0  0 
 17 21  1  0  0  0  0 
 18 19  2  0  0  0  0 
 18 41  1  0  0  0  0 
 19 22  1  0  0  0  0 
 20 22  2  0  0  0  0 
 20 42  1  0  0  0  0 
 21 43  1  0  0  0  0 
 21 44  1  0  0  0  0 
 21 45  1  0  0  0  0 
 22 46  1  0  0  0  0 
 23 24  1  0  0  0  0 
 24 48  1  0  0  0  0 
 24 49  1  0  0  0  0 
 25 26  1  0  0  0  0 
 26 27  2  0  0  0  0 
 26 28  1  0  0  0  0 
 27 29  1  0  0  0  0 
 27 50  1  0  0  0  0 
 28 51  1  0  0  0  0 
 29 30  2  0  0  0  0 
 30 52  1  0  0  0  0 
M  END
> <cdk:Title>
16523035

> <cdk:Remark>
null

> <PUBCHEM_COMPOUND_CID>
16523035

> <PUBCHEM_COMPOUND_CANONICALIZED>
1

> <PUBCHEM_CACTVS_COMPLEXITY>
708

> <PUBCHEM_CACTVS_HBOND_ACCEPTOR>
7

> <PUBCHEM_CACTVS_HBOND_DONOR>
1

> <PUBCHEM_CACTVS_ROTATABLE_BOND>
7

> <PUBCHEM_CACTVS_SUBSKEYS>
AAADceB7OABAEAAAAAAAAAAAAAAAAAAAAAA8WIAAAAAAAAABwAAAHgRQQAABrAjh2gY+yZLIFAKoAjX3XHLCgDA1AiQI2DlobPgKJvrAtZ2HMYxm1AHY69eYkQIOCAAAACAEAAAQAAAAQAgAAAAAAAAAAA==

> <PUBCHEM_IUPAC_OPENEYE_NAME>
[2-[4-methyl-3-(1-piperidylsulfonyl)anilino]-2-oxo-ethyl] 5-bromopyridine-3-carboxylate

> <PUBCHEM_IUPAC_CAS_NAME>
5-bromo-3-pyridinecarboxylic acid [2-[4-methyl-3-(1-piperidinylsulfonyl)anilino]-2-oxoethyl] ester

> <PUBCHEM_IUPAC_NAME>
[2-(4-methyl-3-piperidin-1-ylsulfonylanilino)-2-oxoethyl] 5-bromopyridine-3-carboxylate

> <PUBCHEM_IUPAC_SYSTEMATIC_NAME>
[2-[(4-methyl-3-piperidin-1-ylsulfonyl-phenyl)amino]-2-oxidanylidene-ethyl] 5-bromanylpyridine-3-carboxylate

> <PUBCHEM_IUPAC_TRADITIONAL_NAME>
5-bromonicotinic acid [2-keto-2-(4-methyl-3-piperidinosulfonyl-anilino)ethyl] ester

> <PUBCHEM_IUPAC_INCHI>
InChI=1S/C20H22BrN3O5S/c1-14-5-6-17(10-18(14)30(27,28)24-7-3-2-4-8-24)23-19(25)13-29-20(26)15-9-16(21)12-22-11-15/h5-6,9-12H,2-4,7-8,13H2,1H3,(H,23,25)

> <PUBCHEM_IUPAC_INCHIKEY>
MBBPYGSVGRAGIQ-UHFFFAOYSA-N

> <PUBCHEM_XLOGP3_AA>
2.7

> <PUBCHEM_EXACT_MASS>
495.046354

> <PUBCHEM_MOLECULAR_FORMULA>
C20H22BrN3O5S

> <PUBCHEM_MOLECULAR_WEIGHT>
496.37478

> <PUBCHEM_OPENEYE_CAN_SMILES>
CC1=C(C=C(C=C1)NC(=O)COC(=O)C2=CC(=CN=C2)Br)S(=O)(=O)N3CCCCC3

> <PUBCHEM_OPENEYE_ISO_SMILES>
CC1=C(C=C(C=C1)NC(=O)COC(=O)C2=CC(=CN=C2)Br)S(=O)(=O)N3CCCCC3

> <PUBCHEM_CACTVS_TPSA>
114

> <PUBCHEM_MONOISOTOPIC_WEIGHT>
495.046354

> <PUBCHEM_TOTAL_CHARGE>
0

> <PUBCHEM_HEAVY_ATOM_COUNT>
30

> <PUBCHEM_ATOM_DEF_STEREO_COUNT>
0

> <PUBCHEM_ATOM_UDEF_STEREO_COUNT>
0

> <PUBCHEM_BOND_DEF_STEREO_COUNT>
0

> <PUBCHEM_BOND_UDEF_STEREO_COUNT>
0

> <PUBCHEM_ISOTOPIC_ATOM_COUNT>
0

> <PUBCHEM_COMPONENT_COUNT>
1

> <PUBCHEM_CACTVS_TAUTO_COUNT>
3

> <PUBCHEM_COORDINATE_TYPE>
1

> <PUBCHEM_BONDANNOTATIONS>
10  28  8

$$$$
