20835590
  CDK     0202151410

 40 42  0  0  0  0  0  0  0  0999 V2000
    5.4641   -1.8319    0.0000 O   0  0  0  0  0  0  0  0  0  0  0  0
    4.5981   -1.3319    0.0000 O   0  0  0  0  0  0  0  0  0  0  0  0
   11.5942   -1.3594    0.0000 O   0  0  0  0  0  0  0  0  0  0  0  0
   10.7224   -2.8560    0.0000 O   0  0  0  0  0  0  0  0  0  0  0  0
    2.0000    3.1681    0.0000 O   0  0  0  0  0  0  0  0  0  0  0  0
    3.7320    3.1681    0.0000 O   0  0  0  0  0  0  0  0  0  0  0  0
    7.1962   -1.8319    0.0000 N   0  0  0  0  0  0  0  0  0  0  0  0
    7.1962    0.1681    0.0000 N   0  0  0  0  0  0  0  0  0  0  0  0
   10.7263   -1.8560    0.0000 N   0  0  0  0  0  0  0  0  0  0  0  0
    2.8660    2.6681    0.0000 N   0  0  0  0  0  0  0  0  0  0  0  0
    6.3301   -1.3319    0.0000 C   0  0  3  0  0  0  0  0  0  0  0  0
    8.0622   -1.3319    0.0000 C   0  0  0  0  0  0  0  0  0  0  0  0
    6.3301   -0.3319    0.0000 C   0  0  0  0  0  0  0  0  0  0  0  0
    8.0622   -0.3319    0.0000 C   0  0  0  0  0  0  0  0  0  0  0  0
    8.9561   -1.8666    0.0000 C   0  0  0  0  0  0  0  0  0  0  0  0
    8.9561    0.2028    0.0000 C   0  0  0  0  0  0  0  0  0  0  0  0
    5.4641    0.1681    0.0000 C   0  0  0  0  0  0  0  0  0  0  0  0
    9.8622   -1.3527    0.0000 C   0  0  0  0  0  0  0  0  0  0  0  0
    9.8622   -0.3111    0.0000 C   0  0  0  0  0  0  0  0  0  0  0  0
    4.5981   -0.3319    0.0000 C   0  0  0  0  0  0  0  0  0  0  0  0
    3.7320    0.1681    0.0000 C   0  0  0  0  0  0  0  0  0  0  0  0
    3.7320    1.1681    0.0000 C   0  0  0  0  0  0  0  0  0  0  0  0
    2.8660   -0.3319    0.0000 C   0  0  0  0  0  0  0  0  0  0  0  0
    2.8660    1.6681    0.0000 C   0  0  0  0  0  0  0  0  0  0  0  0
    2.0000    0.1681    0.0000 C   0  0  0  0  0  0  0  0  0  0  0  0
    2.0000    1.1681    0.0000 C   0  0  0  0  0  0  0  0  0  0  0  0
    5.7932   -1.0219    0.0000 H   0  0  0  0  0  0  0  0  0  0  0  0
    7.1962   -2.4519    0.0000 H   0  0  0  0  0  0  0  0  0  0  0  0
    7.1962    0.7881    0.0000 H   0  0  0  0  0  0  0  0  0  0  0  0
    8.9490   -2.4865    0.0000 H   0  0  0  0  0  0  0  0  0  0  0  0
    8.9490    0.8227    0.0000 H   0  0  0  0  0  0  0  0  0  0  0  0
    5.4641    0.7881    0.0000 H   0  0  0  0  0  0  0  0  0  0  0  0
   10.3979    0.0010    0.0000 H   0  0  0  0  0  0  0  0  0  0  0  0
    5.4641   -2.4519    0.0000 H   0  0  0  0  0  0  0  0  0  0  0  0
    4.2690    1.4781    0.0000 H   0  0  0  0  0  0  0  0  0  0  0  0
    2.8660   -0.9519    0.0000 H   0  0  0  0  0  0  0  0  0  0  0  0
    1.4631   -0.1419    0.0000 H   0  0  0  0  0  0  0  0  0  0  0  0
    1.4631    1.4781    0.0000 H   0  0  0  0  0  0  0  0  0  0  0  0
   11.2582   -3.1681    0.0000 H   0  0  0  0  0  0  0  0  0  0  0  0
   12.1300   -1.6714    0.0000 H   0  0  0  0  0  0  0  0  0  0  0  0
  1 11  1  0  0  0  0 
  1 34  1  0  0  0  0 
  2 20  2  0  0  0  0 
  3  9  1  0  0  0  0 
  3 40  1  0  0  0  0 
  4  9  1  0  0  0  0 
  4 39  1  0  0  0  0 
  5 10  1  0  0  0  0 
  6 10  1  0  0  0  0 
  7 11  1  0  0  0  0 
  7 12  1  0  0  0  0 
  7 28  1  0  0  0  0 
  8 13  1  0  0  0  0 
  8 14  1  0  0  0  0 
  8 29  1  0  0  0  0 
  9 18  1  0  0  0  0 
 10 24  1  0  0  0  0 
 11 13  1  0  0  0  0 
 11 27  1  0  0  0  0 
 12 14  2  0  0  0  0 
 12 15  1  0  0  0  0 
 13 17  2  0  0  0  0 
 14 16  1  0  0  0  0 
 15 18  2  0  0  0  0 
 15 30  1  0  0  0  0 
 16 19  2  0  0  0  0 
 16 31  1  0  0  0  0 
 17 20  1  0  0  0  0 
 17 32  1  0  0  0  0 
 18 19  1  0  0  0  0 
 19 33  1  0  0  0  0 
 20 21  1  0  0  0  0 
 21 22  2  0  0  0  0 
 21 23  1  0  0  0  0 
 22 24  1  0  0  0  0 
 22 35  1  0  0  0  0 
 23 25  2  0  0  0  0 
 23 36  1  0  0  0  0 
 24 26  2  0  0  0  0 
 25 26  1  0  0  0  0 
 25 37  1  0  0  0  0 
 26 38  1  0  0  0  0 
M  CHG  1   5  -1
M  CHG  1   6  -1
M  END
> <cdk:Title>
20835590

> <cdk:Remark>
null

> <PUBCHEM_COMPOUND_CID>
20835590

> <PUBCHEM_COMPOUND_CANONICALIZED>
1

> <PUBCHEM_CACTVS_COMPLEXITY>
543

> <PUBCHEM_CACTVS_HBOND_ACCEPTOR>
10

> <PUBCHEM_CACTVS_HBOND_DONOR>
5

> <PUBCHEM_CACTVS_ROTATABLE_BOND>
3

> <PUBCHEM_CACTVS_SUBSKEYS>
AAADccB7uAAAAAAAAAAAAAAAAAAAAAAAAAA8YIAAAAAAAACxQAAAHgAUCAAADAzhmAYwwILQQgCIAqRSQACCAAAlAgAoiIEIdMkKdDLA1dGUMQhgkADY2ccciICOAACAQAQAACAAAQCACAAAQAAAAAAAAA==

> <PUBCHEM_IUPAC_OPENEYE_NAME>
(2E)-2-[6-(dihydroxyamino)-3-hydroxy-3,4-dihydro-1H-quinoxalin-2-ylidene]-1-[3-(dioxidoamino)phenyl]ethanone

> <PUBCHEM_IUPAC_CAS_NAME>
(2E)-2-[6-(dihydroxyamino)-3-hydroxy-3,4-dihydro-1H-quinoxalin-2-ylidene]-1-[3-(dioxidoamino)phenyl]ethanone

> <PUBCHEM_IUPAC_NAME>
(2E)-2-[6-(dihydroxyamino)-3-hydroxy-3,4-dihydro-1H-quinoxalin-2-ylidene]-1-[3-(dioxidoamino)phenyl]ethanone

> <PUBCHEM_IUPAC_SYSTEMATIC_NAME>
(2E)-1-[3-[bis(oxidanidyl)amino]phenyl]-2-[6-[bis(oxidanyl)amino]-3-oxidanyl-3,4-dihydro-1H-quinoxalin-2-ylidene]ethanone

> <PUBCHEM_IUPAC_TRADITIONAL_NAME>
(2E)-2-[6-(dihydroxyamino)-3-hydroxy-3,4-dihydro-1H-quinoxalin-2-ylidene]-1-[3-(dioxidoamino)phenyl]ethanone

> <PUBCHEM_IUPAC_INCHI>
InChI=1S/C16H14N4O6/c21-15(9-2-1-3-10(6-9)19(23)24)8-14-16(22)18-13-7-11(20(25)26)4-5-12(13)17-14/h1-8,16-18,22,25-26H/q-2/b14-8+

> <PUBCHEM_IUPAC_INCHIKEY>
GIARUTRDNGDMHL-RIYZIHGNSA-N

> <PUBCHEM_XLOGP3_AA>
0.5

> <PUBCHEM_EXACT_MASS>
358.091334

> <PUBCHEM_MOLECULAR_FORMULA>
C16H14N4O6-2

> <PUBCHEM_MOLECULAR_WEIGHT>
358.30556

> <PUBCHEM_OPENEYE_CAN_SMILES>
C1=CC(=CC(=C1)N([O-])[O-])C(=O)C=C2C(NC3=C(N2)C=CC(=C3)N(O)O)O

> <PUBCHEM_OPENEYE_ISO_SMILES>
C1=CC(=CC(=C1)N([O-])[O-])C(=O)/C=C/2\C(NC3=C(N2)C=CC(=C3)N(O)O)O

> <PUBCHEM_CACTVS_TPSA>
154

> <PUBCHEM_MONOISOTOPIC_WEIGHT>
358.091334

> <PUBCHEM_TOTAL_CHARGE>
-2

> <PUBCHEM_HEAVY_ATOM_COUNT>
26

> <PUBCHEM_ATOM_DEF_STEREO_COUNT>
0

> <PUBCHEM_ATOM_UDEF_STEREO_COUNT>
1

> <PUBCHEM_BOND_DEF_STEREO_COUNT>
1

> <PUBCHEM_BOND_UDEF_STEREO_COUNT>
0

> <PUBCHEM_ISOTOPIC_ATOM_COUNT>
0

> <PUBCHEM_COMPONENT_COUNT>
1

> <PUBCHEM_CACTVS_TAUTO_COUNT>
9

> <PUBCHEM_COORDINATE_TYPE>
1

> <PUBCHEM_BONDANNOTATIONS>
11  1  3

$$$$
