33889401
  CDK     0202151410

 49 51  0  0  0  0  0  0  0  0999 V2000
    4.6783   -1.2592    0.0000 S   0  0  0  0  0  0  0  0  0  0  0  0
    8.2619   -2.1866    0.0000 S   0  0  0  0  0  0  0  0  0  0  0  0
    9.8497   -1.3775    0.0000 S   0  0  0  0  0  0  0  0  0  0  0  0
    4.3211    2.0450    0.0000 O   0  0  0  0  0  0  0  0  0  0  0  0
    5.9674    1.5070    0.0000 O   0  0  0  0  0  0  0  0  0  0  0  0
    6.2619   -2.1866    0.0000 O   0  0  0  0  0  0  0  0  0  0  0  0
    6.2619   -0.4545    0.0000 N   0  0  0  0  0  0  0  0  0  0  0  0
   11.6097   -1.0988    0.0000 N   0  0  0  0  0  0  0  0  0  0  0  0
   10.8007   -2.6866    0.0000 N   0  0  0  0  0  0  0  0  0  0  0  0
    9.8497   -2.9956    0.0000 N   0  0  0  0  0  0  0  0  0  0  0  0
    2.0000    0.0455    0.0000 C   0  0  0  0  0  0  0  0  0  0  0  0
    2.8660    0.5455    0.0000 C   0  0  0  0  0  0  0  0  0  0  0  0
    2.0000   -0.9545    0.0000 C   0  0  0  0  0  0  0  0  0  0  0  0
    3.7320    0.0455    0.0000 C   0  0  0  0  0  0  0  0  0  0  0  0
    2.8660   -1.4545    0.0000 C   0  0  0  0  0  0  0  0  0  0  0  0
    3.7320   -0.9545    0.0000 C   0  0  0  0  0  0  0  0  0  0  0  0
    4.6783    0.3502    0.0000 C   0  0  0  0  0  0  0  0  0  0  0  0
    5.2619   -0.4545    0.0000 C   0  0  0  0  0  0  0  0  0  0  0  0
    4.9889    1.3008    0.0000 C   0  0  0  0  0  0  0  0  0  0  0  0
    6.7619   -1.3205    0.0000 C   0  0  0  0  0  0  0  0  0  0  0  0
    7.7619   -1.3205    0.0000 C   0  0  0  0  0  0  0  0  0  0  0  0
    4.6318    2.9956    0.0000 C   0  0  0  0  0  0  0  0  0  0  0  0
   12.5233   -1.5055    0.0000 C   0  0  0  0  0  0  0  0  0  0  0  0
   13.3323   -0.9177    0.0000 C   0  0  0  0  0  0  0  0  0  0  0  0
   14.2458   -1.3245    0.0000 C   0  0  0  0  0  0  0  0  0  0  0  0
    9.2619   -2.1866    0.0000 C   0  0  0  0  0  0  0  0  0  0  0  0
   10.8007   -1.6866    0.0000 C   0  0  0  0  0  0  0  0  0  0  0  0
    1.7880    0.6281    0.0000 H   0  0  0  0  0  0  0  0  0  0  0  0
    1.3894   -0.0622    0.0000 H   0  0  0  0  0  0  0  0  0  0  0  0
    3.2646    1.0204    0.0000 H   0  0  0  0  0  0  0  0  0  0  0  0
    2.4675    1.0204    0.0000 H   0  0  0  0  0  0  0  0  0  0  0  0
    1.3894   -0.8468    0.0000 H   0  0  0  0  0  0  0  0  0  0  0  0
    1.7880   -1.5371    0.0000 H   0  0  0  0  0  0  0  0  0  0  0  0
    2.4675   -1.9294    0.0000 H   0  0  0  0  0  0  0  0  0  0  0  0
    3.2646   -1.9294    0.0000 H   0  0  0  0  0  0  0  0  0  0  0  0
    6.5719    0.0824    0.0000 H   0  0  0  0  0  0  0  0  0  0  0  0
    8.3445   -1.1085    0.0000 H   0  0  0  0  0  0  0  0  0  0  0  0
    7.6542   -0.7099    0.0000 H   0  0  0  0  0  0  0  0  0  0  0  0
    5.2211    2.8030    0.0000 H   0  0  0  0  0  0  0  0  0  0  0  0
    4.8244    3.5849    0.0000 H   0  0  0  0  0  0  0  0  0  0  0  0
    4.0424    3.1882    0.0000 H   0  0  0  0  0  0  0  0  0  0  0  0
   12.1766   -2.0195    0.0000 H   0  0  0  0  0  0  0  0  0  0  0  0
   12.9693   -1.9362    0.0000 H   0  0  0  0  0  0  0  0  0  0  0  0
   13.6790   -0.4037    0.0000 H   0  0  0  0  0  0  0  0  0  0  0  0
   12.8863   -0.4870    0.0000 H   0  0  0  0  0  0  0  0  0  0  0  0
   11.5449   -0.4822    0.0000 H   0  0  0  0  0  0  0  0  0  0  0  0
   13.9937   -1.8909    0.0000 H   0  0  0  0  0  0  0  0  0  0  0  0
   14.8122   -1.5766    0.0000 H   0  0  0  0  0  0  0  0  0  0  0  0
   14.4980   -0.7581    0.0000 H   0  0  0  0  0  0  0  0  0  0  0  0
  1 16  1  0  0  0  0 
  1 18  1  0  0  0  0 
  2 21  1  0  0  0  0 
  2 26  1  0  0  0  0 
  3 26  1  0  0  0  0 
  3 27  1  0  0  0  0 
  4 19  1  0  0  0  0 
  4 22  1  0  0  0  0 
  5 19  2  0  0  0  0 
  6 20  2  0  0  0  0 
  7 18  1  0  0  0  0 
  7 20  1  0  0  0  0 
  7 36  1  0  0  0  0 
  8 23  1  0  0  0  0 
  8 27  1  0  0  0  0 
  8 46  1  0  0  0  0 
  9 10  1  0  0  0  0 
  9 27  2  0  0  0  0 
 10 26  2  0  0  0  0 
 11 12  1  0  0  0  0 
 11 13  1  0  0  0  0 
 11 28  1  0  0  0  0 
 11 29  1  0  0  0  0 
 12 14  1  0  0  0  0 
 12 30  1  0  0  0  0 
 12 31  1  0  0  0  0 
 13 15  1  0  0  0  0 
 13 32  1  0  0  0  0 
 13 33  1  0  0  0  0 
 14 16  2  0  0  0  0 
 14 17  1  0  0  0  0 
 15 16  1  0  0  0  0 
 15 34  1  0  0  0  0 
 15 35  1  0  0  0  0 
 17 18  2  0  0  0  0 
 17 19  1  0  0  0  0 
 20 21  1  0  0  0  0 
 21 37  1  0  0  0  0 
 21 38  1  0  0  0  0 
 22 39  1  0  0  0  0 
 22 40  1  0  0  0  0 
 22 41  1  0  0  0  0 
 23 24  1  0  0  0  0 
 23 42  1  0  0  0  0 
 23 43  1  0  0  0  0 
 24 25  1  0  0  0  0 
 24 44  1  0  0  0  0 
 24 45  1  0  0  0  0 
 25 47  1  0  0  0  0 
 25 48  1  0  0  0  0 
 25 49  1  0  0  0  0 
M  END
> <cdk:Title>
33889401

> <cdk:Remark>
null

> <PUBCHEM_COMPOUND_CID>
33889401

> <PUBCHEM_COMPOUND_CANONICALIZED>
1

> <PUBCHEM_CACTVS_COMPLEXITY>
528

> <PUBCHEM_CACTVS_HBOND_ACCEPTOR>
9

> <PUBCHEM_CACTVS_HBOND_DONOR>
2

> <PUBCHEM_CACTVS_ROTATABLE_BOND>
9

> <PUBCHEM_CACTVS_SUBSKEYS>
AAADceB7sABgAAAAAAAAAAAAAAAAAWJAAAAwAAAAAAAAAEgB4AAAHgQYAAAADADF2AaDmYLABAiuAgHQeACTAYJlCBkFiJEITMiIJjrgvJmEEYh21APo6UeYyOCOgAAAAAAAAAAAAAAAAAgAAAAAAAAAAA==

> <PUBCHEM_IUPAC_OPENEYE_NAME>
methyl 2-[[2-[[5-(propylamino)-1,3,4-thiadiazol-2-yl]sulfanyl]acetyl]amino]-4,5,6,7-tetrahydrobenzothiophene-3-carboxylate

> <PUBCHEM_IUPAC_CAS_NAME>
2-[[1-oxo-2-[[5-(propylamino)-1,3,4-thiadiazol-2-yl]thio]ethyl]amino]-4,5,6,7-tetrahydro-1-benzothiophene-3-carboxylic acid methyl ester

> <PUBCHEM_IUPAC_NAME>
methyl 2-[[2-[[5-(propylamino)-1,3,4-thiadiazol-2-yl]sulfanyl]acetyl]amino]-4,5,6,7-tetrahydro-1-benzothiophene-3-carboxylate

> <PUBCHEM_IUPAC_SYSTEMATIC_NAME>
methyl 2-[2-[[5-(propylamino)-1,3,4-thiadiazol-2-yl]sulfanyl]ethanoylamino]-4,5,6,7-tetrahydro-1-benzothiophene-3-carboxylate

> <PUBCHEM_IUPAC_TRADITIONAL_NAME>
2-[[2-[[5-(propylamino)-1,3,4-thiadiazol-2-yl]thio]acetyl]amino]-4,5,6,7-tetrahydrobenzothiophene-3-carboxylic acid methyl ester

> <PUBCHEM_IUPAC_INCHI>
InChI=1S/C17H22N4O3S3/c1-3-8-18-16-20-21-17(27-16)25-9-12(22)19-14-13(15(23)24-2)10-6-4-5-7-11(10)26-14/h3-9H2,1-2H3,(H,18,20)(H,19,22)

> <PUBCHEM_IUPAC_INCHIKEY>
DGHINAHTCKTXOA-UHFFFAOYSA-N

> <PUBCHEM_XLOGP3_AA>
5

> <PUBCHEM_EXACT_MASS>
426.085404

> <PUBCHEM_MOLECULAR_FORMULA>
C17H22N4O3S3

> <PUBCHEM_MOLECULAR_WEIGHT>
426.57658

> <PUBCHEM_OPENEYE_CAN_SMILES>
CCCNC1=NN=C(S1)SCC(=O)NC2=C(C3=C(S2)CCCC3)C(=O)OC

> <PUBCHEM_OPENEYE_ISO_SMILES>
CCCNC1=NN=C(S1)SCC(=O)NC2=C(C3=C(S2)CCCC3)C(=O)OC

> <PUBCHEM_CACTVS_TPSA>
175

> <PUBCHEM_MONOISOTOPIC_WEIGHT>
426.085404

> <PUBCHEM_TOTAL_CHARGE>
0

> <PUBCHEM_HEAVY_ATOM_COUNT>
27

> <PUBCHEM_ATOM_DEF_STEREO_COUNT>
0

> <PUBCHEM_ATOM_UDEF_STEREO_COUNT>
0

> <PUBCHEM_BOND_DEF_STEREO_COUNT>
0

> <PUBCHEM_BOND_UDEF_STEREO_COUNT>
0

> <PUBCHEM_ISOTOPIC_ATOM_COUNT>
0

> <PUBCHEM_COMPONENT_COUNT>
1

> <PUBCHEM_CACTVS_TAUTO_COUNT>
14

> <PUBCHEM_COORDINATE_TYPE>
1

> <PUBCHEM_BONDANNOTATIONS>
1  16  8

$$$$
