64003633
  CDK     0104151047

 37 38  0  0  0  0  0  0  0  0999 V2000
    6.0010    0.7673    0.0000 S   0  0  0  0  0  0  0  0  0  0  0  0
    5.5010   -0.0987    0.0000 O   0  0  0  0  0  0  0  0  0  0  0  0
    6.5010    1.6333    0.0000 O   0  0  0  0  0  0  0  0  0  0  0  0
    9.4931   -1.2674    0.0000 N   0  0  0  0  0  0  0  0  0  0  0  0
    5.1350    1.2673    0.0000 N   0  0  0  0  0  0  0  0  0  0  0  0
    9.4931    0.8020    0.0000 C   0  0  0  0  0  0  0  0  0  0  0  0
    8.5991    0.2673    0.0000 C   0  0  0  0  0  0  0  0  0  0  0  0
   10.3991    0.2881    0.0000 C   0  0  0  0  0  0  0  0  0  0  0  0
    8.5991   -0.7327    0.0000 C   0  0  0  0  0  0  0  0  0  0  0  0
   10.3991   -0.7535    0.0000 C   0  0  0  0  0  0  0  0  0  0  0  0
    6.8671    0.2673    0.0000 C   0  0  0  0  0  0  0  0  0  0  0  0
    7.7331    0.7673    0.0000 C   0  0  0  0  0  0  0  0  0  0  0  0
    4.2690    0.7673    0.0000 C   0  0  0  0  0  0  0  0  0  0  0  0
    7.7331   -1.2327    0.0000 C   0  0  0  0  0  0  0  0  0  0  0  0
    6.8671   -0.7327    0.0000 C   0  0  0  0  0  0  0  0  0  0  0  0
    3.7690    1.6333    0.0000 C   0  0  0  0  0  0  0  0  0  0  0  0
    4.7690   -0.0987    0.0000 C   0  0  0  0  0  0  0  0  0  0  0  0
    3.4030    0.2673    0.0000 C   0  0  0  0  0  0  0  0  0  0  0  0
    2.5369   -0.2327    0.0000 C   0  0  0  0  0  0  0  0  0  0  0  0
    9.8867    1.2810    0.0000 H   0  0  0  0  0  0  0  0  0  0  0  0
    9.0885    1.2718    0.0000 H   0  0  0  0  0  0  0  0  0  0  0  0
   11.0100    0.1820    0.0000 H   0  0  0  0  0  0  0  0  0  0  0  0
   10.6082    0.8718    0.0000 H   0  0  0  0  0  0  0  0  0  0  0  0
   10.6082   -1.3372    0.0000 H   0  0  0  0  0  0  0  0  0  0  0  0
   11.0100   -0.6474    0.0000 H   0  0  0  0  0  0  0  0  0  0  0  0
    7.7331    1.3873    0.0000 H   0  0  0  0  0  0  0  0  0  0  0  0
    9.4859   -1.8873    0.0000 H   0  0  0  0  0  0  0  0  0  0  0  0
    7.7331   -1.8527    0.0000 H   0  0  0  0  0  0  0  0  0  0  0  0
    5.1350    1.8873    0.0000 H   0  0  0  0  0  0  0  0  0  0  0  0
    6.3301   -1.0427    0.0000 H   0  0  0  0  0  0  0  0  0  0  0  0
    4.2320   -0.4087    0.0000 H   0  0  0  0  0  0  0  0  0  0  0  0
    4.3059    1.9433    0.0000 H   0  0  0  0  0  0  0  0  0  0  0  0
    3.4590    2.1703    0.0000 H   0  0  0  0  0  0  0  0  0  0  0  0
    3.2320    1.3233    0.0000 H   0  0  0  0  0  0  0  0  0  0  0  0
    5.0790   -0.6357    0.0000 H   0  0  0  0  0  0  0  0  0  0  0  0
    5.3059    0.2113    0.0000 H   0  0  0  0  0  0  0  0  0  0  0  0
    2.0000   -0.5427    0.0000 H   0  0  0  0  0  0  0  0  0  0  0  0
  1  2  2  0  0  0  0 
  1  3  2  0  0  0  0 
  1  5  1  0  0  0  0 
  1 11  1  0  0  0  0 
  4  9  1  0  0  0  0 
  4 10  1  0  0  0  0 
  4 27  1  0  0  0  0 
  5 13  1  0  0  0  0 
  5 29  1  0  0  0  0 
  6  7  1  0  0  0  0 
  6  8  1  0  0  0  0 
  6 20  1  0  0  0  0 
  6 21  1  0  0  0  0 
  7  9  2  0  0  0  0 
  7 12  1  0  0  0  0 
  8 10  1  0  0  0  0 
  8 22  1  0  0  0  0 
  8 23  1  0  0  0  0 
  9 14  1  0  0  0  0 
 10 24  1  0  0  0  0 
 10 25  1  0  0  0  0 
 11 12  2  0  0  0  0 
 11 15  1  0  0  0  0 
 12 26  1  0  0  0  0 
 13 16  1  0  0  0  0 
 13 17  1  0  0  0  0 
 13 18  1  0  0  0  0 
 14 15  2  0  0  0  0 
 14 28  1  0  0  0  0 
 15 30  1  0  0  0  0 
 16 32  1  0  0  0  0 
 16 33  1  0  0  0  0 
 16 34  1  0  0  0  0 
 17 31  1  0  0  0  0 
 17 35  1  0  0  0  0 
 17 36  1  0  0  0  0 
 18 19  3  0  0  0  0 
 19 37  1  0  0  0  0 
M  END
> <cdk:Title>
64003633

> <cdk:Remark>
null

> <PUBCHEM_COMPOUND_CID>
64003633

> <PUBCHEM_COMPOUND_CANONICALIZED>
1

> <PUBCHEM_CACTVS_COMPLEXITY>
469

> <PUBCHEM_CACTVS_HBOND_ACCEPTOR>
4

> <PUBCHEM_CACTVS_HBOND_DONOR>
2

> <PUBCHEM_CACTVS_ROTATABLE_BOND>
4

> <PUBCHEM_CACTVS_SUBSKEYS>
AAADceBzMABAAAAAAAAAAAAAAAAAAAAAAAA8QAAAAAAAAACxAAAAHAQQQAAADIjBWAQywYLAAALAGiRCQHjCABAhAgAIiJgIZIgIICLAkZGEIAhgkADIyAcQgIAOAAQAgAACAAAACAEAAAQAAAAAAAAAAA==

> <PUBCHEM_IUPAC_OPENEYE_NAME>
N-(1,1-dimethylprop-2-ynyl)-1,2,3,4-tetrahydroquinoline-6-sulfonamide

> <PUBCHEM_IUPAC_CAS_NAME>
N-(2-methylbut-3-yn-2-yl)-1,2,3,4-tetrahydroquinoline-6-sulfonamide

> <PUBCHEM_IUPAC_NAME>
N-(2-methylbut-3-yn-2-yl)-1,2,3,4-tetrahydroquinoline-6-sulfonamide

> <PUBCHEM_IUPAC_SYSTEMATIC_NAME>
N-(2-methylbut-3-yn-2-yl)-1,2,3,4-tetrahydroquinoline-6-sulfonamide

> <PUBCHEM_IUPAC_TRADITIONAL_NAME>
N-(1,1-dimethylprop-2-ynyl)-1,2,3,4-tetrahydroquinoline-6-sulfonamide

> <PUBCHEM_IUPAC_INCHI>
InChI=1S/C14H18N2O2S/c1-4-14(2,3)16-19(17,18)12-7-8-13-11(10-12)6-5-9-15-13/h1,7-8,10,15-16H,5-6,9H2,2-3H3

> <PUBCHEM_IUPAC_INCHIKEY>
GQMMRTCOWOXMSL-UHFFFAOYSA-N

> <PUBCHEM_XLOGP3_AA>
2

> <PUBCHEM_EXACT_MASS>
278.108899

> <PUBCHEM_MOLECULAR_FORMULA>
C14H18N2O2S

> <PUBCHEM_MOLECULAR_WEIGHT>
278.36992

> <PUBCHEM_OPENEYE_CAN_SMILES>
CC(C)(C#C)NS(=O)(=O)C1=CC2=C(C=C1)NCCC2

> <PUBCHEM_OPENEYE_ISO_SMILES>
CC(C)(C#C)NS(=O)(=O)C1=CC2=C(C=C1)NCCC2

> <PUBCHEM_CACTVS_TPSA>
66.6

> <PUBCHEM_MONOISOTOPIC_WEIGHT>
278.108899

> <PUBCHEM_TOTAL_CHARGE>
0

> <PUBCHEM_HEAVY_ATOM_COUNT>
19

> <PUBCHEM_ATOM_DEF_STEREO_COUNT>
0

> <PUBCHEM_ATOM_UDEF_STEREO_COUNT>
0

> <PUBCHEM_BOND_DEF_STEREO_COUNT>
0

> <PUBCHEM_BOND_UDEF_STEREO_COUNT>
0

> <PUBCHEM_ISOTOPIC_ATOM_COUNT>
0

> <PUBCHEM_COMPONENT_COUNT>
1

> <PUBCHEM_CACTVS_TAUTO_COUNT>
1

> <PUBCHEM_COORDINATE_TYPE>
1

> <PUBCHEM_BONDANNOTATIONS>
11  12  8

$$$$
