37707024
  CDK     1112141043

 53 56  0  0  0  0  0  0  0  0999 V2000
    5.5000    1.3170    0.0000 O   0  0  0  0  0  0  0  0  0  0  0  0
    6.5000   -0.4151    0.0000 N   0  0  3  0  0  0  0  0  0  0  0  0
    8.2320    0.5849    0.0000 N   0  0  0  0  0  0  0  0  0  0  0  0
    4.0000    0.4510    0.0000 N   0  0  0  0  0  0  0  0  0  0  0  0
    7.3660   -0.9151    0.0000 C   0  0  2  0  0  0  0  0  0  0  0  0
    6.5000    0.5849    0.0000 C   0  0  0  0  0  0  0  0  0  0  0  0
    8.2320   -0.4151    0.0000 C   0  0  0  0  0  0  0  0  0  0  0  0
    7.3660    1.0849    0.0000 C   0  0  0  0  0  0  0  0  0  0  0  0
    5.5000   -0.4151    0.0000 C   0  0  0  0  0  0  0  0  0  0  0  0
    7.3660   -1.9151    0.0000 C   0  0  0  0  0  0  0  0  0  0  0  0
    9.1783   -0.7198    0.0000 C   0  0  0  0  0  0  0  0  0  0  0  0
    9.1783    0.8897    0.0000 C   0  0  0  0  0  0  0  0  0  0  0  0
    9.7619    0.0849    0.0000 C   0  0  0  0  0  0  0  0  0  0  0  0
    5.0000    0.4510    0.0000 C   0  0  0  0  0  0  0  0  0  0  0  0
    6.5000   -2.4151    0.0000 C   0  0  0  0  0  0  0  0  0  0  0  0
    8.2320   -2.4151    0.0000 C   0  0  0  0  0  0  0  0  0  0  0  0
    6.5000   -3.4151    0.0000 C   0  0  0  0  0  0  0  0  0  0  0  0
    8.2320   -3.4151    0.0000 C   0  0  0  0  0  0  0  0  0  0  0  0
    7.3660   -3.9151    0.0000 C   0  0  0  0  0  0  0  0  0  0  0  0
    3.5000    1.3170    0.0000 C   0  0  0  0  0  0  0  0  0  0  0  0
    4.0000    2.1830    0.0000 C   0  0  0  0  0  0  0  0  0  0  0  0
    2.5000    1.3170    0.0000 C   0  0  0  0  0  0  0  0  0  0  0  0
    3.5000    3.0490    0.0000 C   0  0  0  0  0  0  0  0  0  0  0  0
    5.0000    2.1830    0.0000 C   0  0  0  0  0  0  0  0  0  0  0  0
    2.0000    2.1830    0.0000 C   0  0  0  0  0  0  0  0  0  0  0  0
    2.5000    3.0490    0.0000 C   0  0  0  0  0  0  0  0  0  0  0  0
    4.0000    3.9151    0.0000 C   0  0  0  0  0  0  0  0  0  0  0  0
    6.1900   -0.9520    0.0000 H   0  0  0  0  0  0  0  0  0  0  0  0
    6.8291   -1.2251    0.0000 H   0  0  0  0  0  0  0  0  0  0  0  0
    6.2880    1.1676    0.0000 H   0  0  0  0  0  0  0  0  0  0  0  0
    5.8894    0.4773    0.0000 H   0  0  0  0  0  0  0  0  0  0  0  0
    7.7646    1.5599    0.0000 H   0  0  0  0  0  0  0  0  0  0  0  0
    6.9675    1.5599    0.0000 H   0  0  0  0  0  0  0  0  0  0  0  0
    4.9174   -0.6271    0.0000 H   0  0  0  0  0  0  0  0  0  0  0  0
    5.6077   -1.0256    0.0000 H   0  0  0  0  0  0  0  0  0  0  0  0
    9.3709   -1.3091    0.0000 H   0  0  0  0  0  0  0  0  0  0  0  0
    9.3709    1.4790    0.0000 H   0  0  0  0  0  0  0  0  0  0  0  0
   10.3819    0.0849    0.0000 H   0  0  0  0  0  0  0  0  0  0  0  0
    5.9631   -2.1051    0.0000 H   0  0  0  0  0  0  0  0  0  0  0  0
    8.7690   -2.1051    0.0000 H   0  0  0  0  0  0  0  0  0  0  0  0
    3.6900   -0.0860    0.0000 H   0  0  0  0  0  0  0  0  0  0  0  0
    5.9631   -3.7251    0.0000 H   0  0  0  0  0  0  0  0  0  0  0  0
    8.7690   -3.7251    0.0000 H   0  0  0  0  0  0  0  0  0  0  0  0
    7.3660   -4.5351    0.0000 H   0  0  0  0  0  0  0  0  0  0  0  0
    2.1900    0.7801    0.0000 H   0  0  0  0  0  0  0  0  0  0  0  0
    5.0000    1.5630    0.0000 H   0  0  0  0  0  0  0  0  0  0  0  0
    5.6200    2.1830    0.0000 H   0  0  0  0  0  0  0  0  0  0  0  0
    5.0000    2.8030    0.0000 H   0  0  0  0  0  0  0  0  0  0  0  0
    1.3800    2.1830    0.0000 H   0  0  0  0  0  0  0  0  0  0  0  0
    2.1900    3.5860    0.0000 H   0  0  0  0  0  0  0  0  0  0  0  0
    4.5369    3.6051    0.0000 H   0  0  0  0  0  0  0  0  0  0  0  0
    4.3100    4.4520    0.0000 H   0  0  0  0  0  0  0  0  0  0  0  0
    3.4631    4.2251    0.0000 H   0  0  0  0  0  0  0  0  0  0  0  0
  1 14  2  0  0  0  0 
  2  5  1  0  0  0  0 
  2  6  1  0  0  0  0 
  2  9  1  0  0  0  0 
  2 28  1  0  0  0  0 
  3  7  1  0  0  0  0 
  3  8  1  0  0  0  0 
  3 12  1  0  0  0  0 
  4 14  1  0  0  0  0 
  4 20  1  0  0  0  0 
  4 41  1  0  0  0  0 
  5  7  1  0  0  0  0 
  5 10  1  6  0  0  0 
  5 29  1  0  0  0  0 
  6  8  1  0  0  0  0 
  6 30  1  0  0  0  0 
  6 31  1  0  0  0  0 
  7 11  2  0  0  0  0 
  8 32  1  0  0  0  0 
  8 33  1  0  0  0  0 
  9 14  1  0  0  0  0 
  9 34  1  0  0  0  0 
  9 35  1  0  0  0  0 
 10 15  2  0  0  0  0 
 10 16  1  0  0  0  0 
 11 13  1  0  0  0  0 
 11 36  1  0  0  0  0 
 12 13  2  0  0  0  0 
 12 37  1  0  0  0  0 
 13 38  1  0  0  0  0 
 15 17  1  0  0  0  0 
 15 39  1  0  0  0  0 
 16 18  2  0  0  0  0 
 16 40  1  0  0  0  0 
 17 19  2  0  0  0  0 
 17 42  1  0  0  0  0 
 18 19  1  0  0  0  0 
 18 43  1  0  0  0  0 
 19 44  1  0  0  0  0 
 20 21  1  0  0  0  0 
 20 22  2  0  0  0  0 
 21 23  2  0  0  0  0 
 21 24  1  0  0  0  0 
 22 25  1  0  0  0  0 
 22 45  1  0  0  0  0 
 23 26  1  0  0  0  0 
 23 27  1  0  0  0  0 
 24 46  1  0  0  0  0 
 24 47  1  0  0  0  0 
 24 48  1  0  0  0  0 
 25 26  2  0  0  0  0 
 25 49  1  0  0  0  0 
 26 50  1  0  0  0  0 
 27 51  1  0  0  0  0 
 27 52  1  0  0  0  0 
 27 53  1  0  0  0  0 
M  CHG  1   2   1
M  END
> <cdk:Title>
37707024

> <cdk:Remark>
null

> <PUBCHEM_COMPOUND_CID>
37707024

> <PUBCHEM_COMPOUND_CANONICALIZED>
1

> <PUBCHEM_CACTVS_COMPLEXITY>
504

> <PUBCHEM_CACTVS_HBOND_ACCEPTOR>
1

> <PUBCHEM_CACTVS_HBOND_DONOR>
2

> <PUBCHEM_CACTVS_ROTATABLE_BOND>
4

> <PUBCHEM_CACTVS_SUBSKEYS>
AAADceB7IAAAAAAAAAAAAAAAAAAAAWAAAAA8YIAAAAAAAFgB0AAAHgAQAAAADCjBngQ+wJPMEACoAzV3VACCgCAxAiAI2KC4ZJgIYOLAkbGUIAhglADIyAcQgMAOgAAAQAASAAAAAACAACQAAAAAAAAAAA==

> <PUBCHEM_IUPAC_OPENEYE_NAME>
N-(2,3-dimethylphenyl)-2-[(1S)-1-phenyl-1,2,3,4-tetrahydropyrrolo[1,2-a]pyrazin-2-ium-2-yl]acetamide

> <PUBCHEM_IUPAC_CAS_NAME>
N-(2,3-dimethylphenyl)-2-[(1S)-1-phenyl-1,2,3,4-tetrahydropyrrolo[1,2-a]pyrazin-2-ium-2-yl]acetamide

> <PUBCHEM_IUPAC_NAME>
N-(2,3-dimethylphenyl)-2-[(1S)-1-phenyl-1,2,3,4-tetrahydropyrrolo[1,2-a]pyrazin-2-ium-2-yl]acetamide

> <PUBCHEM_IUPAC_SYSTEMATIC_NAME>
N-(2,3-dimethylphenyl)-2-[(1S)-1-phenyl-1,2,3,4-tetrahydropyrrolo[1,2-a]pyrazin-2-ium-2-yl]ethanamide

> <PUBCHEM_IUPAC_TRADITIONAL_NAME>
N-(2,3-dimethylphenyl)-2-[(1S)-1-phenyl-1,2,3,4-tetrahydropyrrolo[1,2-a]pyrazin-2-ium-2-yl]acetamide

> <PUBCHEM_IUPAC_INCHI>
InChI=1S/C23H25N3O/c1-17-8-6-11-20(18(17)2)24-22(27)16-26-15-14-25-13-7-12-21(25)23(26)19-9-4-3-5-10-19/h3-13,23H,14-16H2,1-2H3,(H,24,27)/p+1/t23-/m0/s1

> <PUBCHEM_IUPAC_INCHIKEY>
RWDLAEIRRQFZQI-QHCPKHFHSA-O

> <PUBCHEM_XLOGP3_AA>
3.6

> <PUBCHEM_EXACT_MASS>
360.207587

> <PUBCHEM_MOLECULAR_FORMULA>
C23H26N3O+

> <PUBCHEM_MOLECULAR_WEIGHT>
360.47204

> <PUBCHEM_OPENEYE_CAN_SMILES>
CC1=C(C(=CC=C1)NC(=O)C[NH+]2CCN3C=CC=C3C2C4=CC=CC=C4)C

> <PUBCHEM_OPENEYE_ISO_SMILES>
CC1=C(C(=CC=C1)NC(=O)C[NH+]2CCN3C=CC=C3[C@@H]2C4=CC=CC=C4)C

> <PUBCHEM_CACTVS_TPSA>
38.5

> <PUBCHEM_MONOISOTOPIC_WEIGHT>
360.207587

> <PUBCHEM_TOTAL_CHARGE>
1

> <PUBCHEM_HEAVY_ATOM_COUNT>
27

> <PUBCHEM_ATOM_DEF_STEREO_COUNT>
1

> <PUBCHEM_ATOM_UDEF_STEREO_COUNT>
0

> <PUBCHEM_BOND_DEF_STEREO_COUNT>
0

> <PUBCHEM_BOND_UDEF_STEREO_COUNT>
0

> <PUBCHEM_ISOTOPIC_ATOM_COUNT>
0

> <PUBCHEM_COMPONENT_COUNT>
1

> <PUBCHEM_CACTVS_TAUTO_COUNT>
3

> <PUBCHEM_COORDINATE_TYPE>
1

> <PUBCHEM_BONDANNOTATIONS>
10  15  8

$$$$
