43536971
  CDK     0104151047

 25 26  0  0  0  0  0  0  0  0999 V2000
    7.2622   -0.3865    0.0000 F   0  0  0  0  0  0  0  0  0  0  0  0
    3.7320    1.6377    0.0000 O   0  0  0  0  0  0  0  0  0  0  0  0
    3.7320   -1.3623    0.0000 N   0  0  0  0  0  0  0  0  0  0  0  0
    3.7320   -0.3623    0.0000 C   0  0  3  0  0  0  0  0  0  0  0  0
    2.8660    0.1377    0.0000 C   0  0  0  0  0  0  0  0  0  0  0  0
    2.8660    1.1377    0.0000 C   0  0  3  0  0  0  0  0  0  0  0  0
    4.5981    0.1377    0.0000 C   0  0  0  0  0  0  0  0  0  0  0  0
    4.5981    1.1377    0.0000 C   0  0  0  0  0  0  0  0  0  0  0  0
    2.0000    1.6377    0.0000 C   0  0  0  0  0  0  0  0  0  0  0  0
    5.4920   -0.3970    0.0000 C   0  0  0  0  0  0  0  0  0  0  0  0
    5.4920    1.6723    0.0000 C   0  0  0  0  0  0  0  0  0  0  0  0
    6.3981    0.1169    0.0000 C   0  0  0  0  0  0  0  0  0  0  0  0
    6.3981    1.1585    0.0000 C   0  0  0  0  0  0  0  0  0  0  0  0
    4.2690   -0.6723    0.0000 H   0  0  0  0  0  0  0  0  0  0  0  0
    2.2554    0.2453    0.0000 H   0  0  0  0  0  0  0  0  0  0  0  0
    2.6540   -0.4449    0.0000 H   0  0  0  0  0  0  0  0  0  0  0  0
    2.8660    1.7577    0.0000 H   0  0  0  0  0  0  0  0  0  0  0  0
    2.3100    2.1746    0.0000 H   0  0  0  0  0  0  0  0  0  0  0  0
    1.4631    1.9477    0.0000 H   0  0  0  0  0  0  0  0  0  0  0  0
    1.6900    1.1007    0.0000 H   0  0  0  0  0  0  0  0  0  0  0  0
    5.4848   -1.0170    0.0000 H   0  0  0  0  0  0  0  0  0  0  0  0
    3.1951   -1.6723    0.0000 H   0  0  0  0  0  0  0  0  0  0  0  0
    4.2690   -1.6723    0.0000 H   0  0  0  0  0  0  0  0  0  0  0  0
    5.4848    2.2923    0.0000 H   0  0  0  0  0  0  0  0  0  0  0  0
    6.9338    1.4706    0.0000 H   0  0  0  0  0  0  0  0  0  0  0  0
  1 12  1  0  0  0  0 
  2  6  1  0  0  0  0 
  2  8  1  0  0  0  0 
  3  4  1  0  0  0  0 
  3 22  1  0  0  0  0 
  3 23  1  0  0  0  0 
  4  5  1  0  0  0  0 
  4  7  1  0  0  0  0 
  4 14  1  0  0  0  0 
  5  6  1  0  0  0  0 
  5 15  1  0  0  0  0 
  5 16  1  0  0  0  0 
  6  9  1  0  0  0  0 
  6 17  1  0  0  0  0 
  7  8  2  0  0  0  0 
  7 10  1  0  0  0  0 
  8 11  1  0  0  0  0 
  9 18  1  0  0  0  0 
  9 19  1  0  0  0  0 
  9 20  1  0  0  0  0 
 10 12  2  0  0  0  0 
 10 21  1  0  0  0  0 
 11 13  2  0  0  0  0 
 11 24  1  0  0  0  0 
 12 13  1  0  0  0  0 
 13 25  1  0  0  0  0 
M  END
> <cdk:Title>
43536971

> <cdk:Remark>
null

> <PUBCHEM_COMPOUND_CID>
43536971

> <PUBCHEM_COMPOUND_CANONICALIZED>
1

> <PUBCHEM_CACTVS_COMPLEXITY>
188

> <PUBCHEM_CACTVS_HBOND_ACCEPTOR>
3

> <PUBCHEM_CACTVS_HBOND_DONOR>
1

> <PUBCHEM_CACTVS_ROTATABLE_BOND>
0

> <PUBCHEM_CACTVS_SUBSKEYS>
AAADccByIQAAAAAAAAAAAAAAAAAAAAAAAAA0QAAAAAAAAACRAAAAHwAQAAAADDzhmA4yBoBABACAAiBCAACCCAAgIAAIiIAGDIgMJiKEsRuCOCDm0BEIqAeQwKAOAAAAAAAIAAAAAAAAABAAAAAAAAAAAA==

> <PUBCHEM_IUPAC_OPENEYE_NAME>
6-fluoro-2-methyl-chroman-4-amine

> <PUBCHEM_IUPAC_CAS_NAME>
6-fluoro-2-methyl-3,4-dihydro-2H-1-benzopyran-4-amine

> <PUBCHEM_IUPAC_NAME>
6-fluoro-2-methyl-3,4-dihydro-2H-chromen-4-amine

> <PUBCHEM_IUPAC_SYSTEMATIC_NAME>
6-fluoranyl-2-methyl-3,4-dihydro-2H-chromen-4-amine

> <PUBCHEM_IUPAC_TRADITIONAL_NAME>
(6-fluoro-2-methyl-chroman-4-yl)amine

> <PUBCHEM_IUPAC_INCHI>
InChI=1S/C10H12FNO/c1-6-4-9(12)8-5-7(11)2-3-10(8)13-6/h2-3,5-6,9H,4,12H2,1H3

> <PUBCHEM_IUPAC_INCHIKEY>
KQUSNUBHADVPBO-UHFFFAOYSA-N

> <PUBCHEM_XLOGP3_AA>
1.4

> <PUBCHEM_EXACT_MASS>
181.090292

> <PUBCHEM_MOLECULAR_FORMULA>
C10H12FNO

> <PUBCHEM_MOLECULAR_WEIGHT>
181.206783

> <PUBCHEM_OPENEYE_CAN_SMILES>
CC1CC(C2=C(O1)C=CC(=C2)F)N

> <PUBCHEM_OPENEYE_ISO_SMILES>
CC1CC(C2=C(O1)C=CC(=C2)F)N

> <PUBCHEM_CACTVS_TPSA>
35.2

> <PUBCHEM_MONOISOTOPIC_WEIGHT>
181.090292

> <PUBCHEM_TOTAL_CHARGE>
0

> <PUBCHEM_HEAVY_ATOM_COUNT>
13

> <PUBCHEM_ATOM_DEF_STEREO_COUNT>
0

> <PUBCHEM_ATOM_UDEF_STEREO_COUNT>
2

> <PUBCHEM_BOND_DEF_STEREO_COUNT>
0

> <PUBCHEM_BOND_UDEF_STEREO_COUNT>
0

> <PUBCHEM_ISOTOPIC_ATOM_COUNT>
0

> <PUBCHEM_COMPONENT_COUNT>
1

> <PUBCHEM_CACTVS_TAUTO_COUNT>
1

> <PUBCHEM_COORDINATE_TYPE>
1

> <PUBCHEM_BONDANNOTATIONS>
10  12  8

$$$$
43536971
  CDK     0104151047

 25 26  0  0  0  0  0  0  0  0999 V2000
    7.2622   -0.3865    0.0000 F   0  0  0  0  0  0  0  0  0  0  0  0
    3.7320    1.6377    0.0000 O   0  0  0  0  0  0  0  0  0  0  0  0
    3.7320   -1.3623    0.0000 N   0  0  0  0  0  0  0  0  0  0  0  0
    3.7320   -0.3623    0.0000 C   0  0  3  0  0  0  0  0  0  0  0  0
    2.8660    0.1377    0.0000 C   0  0  0  0  0  0  0  0  0  0  0  0
    2.8660    1.1377    0.0000 C   0  0  3  0  0  0  0  0  0  0  0  0
    4.5981    0.1377    0.0000 C   0  0  0  0  0  0  0  0  0  0  0  0
    4.5981    1.1377    0.0000 C   0  0  0  0  0  0  0  0  0  0  0  0
    2.0000    1.6377    0.0000 C   0  0  0  0  0  0  0  0  0  0  0  0
    5.4920   -0.3970    0.0000 C   0  0  0  0  0  0  0  0  0  0  0  0
    5.4920    1.6723    0.0000 C   0  0  0  0  0  0  0  0  0  0  0  0
    6.3981    0.1169    0.0000 C   0  0  0  0  0  0  0  0  0  0  0  0
    6.3981    1.1585    0.0000 C   0  0  0  0  0  0  0  0  0  0  0  0
    4.2690   -0.6723    0.0000 H   0  0  0  0  0  0  0  0  0  0  0  0
    2.2554    0.2453    0.0000 H   0  0  0  0  0  0  0  0  0  0  0  0
    2.6540   -0.4449    0.0000 H   0  0  0  0  0  0  0  0  0  0  0  0
    2.8660    1.7577    0.0000 H   0  0  0  0  0  0  0  0  0  0  0  0
    2.3100    2.1746    0.0000 H   0  0  0  0  0  0  0  0  0  0  0  0
    1.4631    1.9477    0.0000 H   0  0  0  0  0  0  0  0  0  0  0  0
    1.6900    1.1007    0.0000 H   0  0  0  0  0  0  0  0  0  0  0  0
    5.4848   -1.0170    0.0000 H   0  0  0  0  0  0  0  0  0  0  0  0
    3.1951   -1.6723    0.0000 H   0  0  0  0  0  0  0  0  0  0  0  0
    4.2690   -1.6723    0.0000 H   0  0  0  0  0  0  0  0  0  0  0  0
    5.4848    2.2923    0.0000 H   0  0  0  0  0  0  0  0  0  0  0  0
    6.9338    1.4706    0.0000 H   0  0  0  0  0  0  0  0  0  0  0  0
  1 12  1  0  0  0  0 
  2  6  1  0  0  0  0 
  2  8  1  0  0  0  0 
  3  4  1  0  0  0  0 
  3 22  1  0  0  0  0 
  3 23  1  0  0  0  0 
  4  5  1  0  0  0  0 
  4  7  1  0  0  0  0 
  4 14  1  0  0  0  0 
  5  6  1  0  0  0  0 
  5 15  1  0  0  0  0 
  5 16  1  0  0  0  0 
  6  9  1  0  0  0  0 
  6 17  1  0  0  0  0 
  7  8  2  0  0  0  0 
  7 10  1  0  0  0  0 
  8 11  1  0  0  0  0 
  9 18  1  0  0  0  0 
  9 19  1  0  0  0  0 
  9 20  1  0  0  0  0 
 10 12  2  0  0  0  0 
 10 21  1  0  0  0  0 
 11 13  2  0  0  0  0 
 11 24  1  0  0  0  0 
 12 13  1  0  0  0  0 
 13 25  1  0  0  0  0 
M  END
> <cdk:Title>
43536971

> <cdk:Remark>
null

> <PUBCHEM_COMPOUND_CID>
43536971

> <PUBCHEM_COMPOUND_CANONICALIZED>
1

> <PUBCHEM_CACTVS_COMPLEXITY>
188

> <PUBCHEM_CACTVS_HBOND_ACCEPTOR>
3

> <PUBCHEM_CACTVS_HBOND_DONOR>
1

> <PUBCHEM_CACTVS_ROTATABLE_BOND>
0

> <PUBCHEM_CACTVS_SUBSKEYS>
AAADccByIQAAAAAAAAAAAAAAAAAAAAAAAAA0QAAAAAAAAACRAAAAHwAQAAAADDzhmA4yBoBABACAAiBCAACCCAAgIAAIiIAGDIgMJiKEsRuCOCDm0BEIqAeQwKAOAAAAAAAIAAAAAAAAABAAAAAAAAAAAA==

> <PUBCHEM_IUPAC_OPENEYE_NAME>
6-fluoro-2-methyl-chroman-4-amine

> <PUBCHEM_IUPAC_CAS_NAME>
6-fluoro-2-methyl-3,4-dihydro-2H-1-benzopyran-4-amine

> <PUBCHEM_IUPAC_NAME>
6-fluoro-2-methyl-3,4-dihydro-2H-chromen-4-amine

> <PUBCHEM_IUPAC_SYSTEMATIC_NAME>
6-fluoranyl-2-methyl-3,4-dihydro-2H-chromen-4-amine

> <PUBCHEM_IUPAC_TRADITIONAL_NAME>
(6-fluoro-2-methyl-chroman-4-yl)amine

> <PUBCHEM_IUPAC_INCHI>
InChI=1S/C10H12FNO/c1-6-4-9(12)8-5-7(11)2-3-10(8)13-6/h2-3,5-6,9H,4,12H2,1H3

> <PUBCHEM_IUPAC_INCHIKEY>
KQUSNUBHADVPBO-UHFFFAOYSA-N

> <PUBCHEM_XLOGP3_AA>
1.4

> <PUBCHEM_EXACT_MASS>
181.090292

> <PUBCHEM_MOLECULAR_FORMULA>
C10H12FNO

> <PUBCHEM_MOLECULAR_WEIGHT>
181.206783

> <PUBCHEM_OPENEYE_CAN_SMILES>
CC1CC(C2=C(O1)C=CC(=C2)F)N

> <PUBCHEM_OPENEYE_ISO_SMILES>
CC1CC(C2=C(O1)C=CC(=C2)F)N

> <PUBCHEM_CACTVS_TPSA>
35.2

> <PUBCHEM_MONOISOTOPIC_WEIGHT>
181.090292

> <PUBCHEM_TOTAL_CHARGE>
0

> <PUBCHEM_HEAVY_ATOM_COUNT>
13

> <PUBCHEM_ATOM_DEF_STEREO_COUNT>
0

> <PUBCHEM_ATOM_UDEF_STEREO_COUNT>
2

> <PUBCHEM_BOND_DEF_STEREO_COUNT>
0

> <PUBCHEM_BOND_UDEF_STEREO_COUNT>
0

> <PUBCHEM_ISOTOPIC_ATOM_COUNT>
0

> <PUBCHEM_COMPONENT_COUNT>
1

> <PUBCHEM_CACTVS_TAUTO_COUNT>
1

> <PUBCHEM_COORDINATE_TYPE>
1

> <PUBCHEM_BONDANNOTATIONS>
10  12  8

$$$$
