68683765
  CDK     0101151218

 35 36  0  0  0  0  0  0  0  0999 V2000
    6.3301   -3.3660    0.0000 F   0  0  0  0  0  0  0  0  0  0  0  0
    4.0981    2.5000    0.0000 O   0  0  0  0  0  0  0  0  0  0  0  0
    6.0981    2.5000    0.0000 O   0  0  0  0  0  0  0  0  0  0  0  0
    4.5981    3.3660    0.0000 O   0  0  0  0  0  0  0  0  0  0  0  0
    2.0000   -1.8660    0.0000 O   0  0  0  0  0  0  0  0  0  0  0  0
    2.8660   -0.3660    0.0000 O   0  0  0  0  0  0  0  0  0  0  0  0
    4.5981   -0.3660    0.0000 N   0  0  0  0  0  0  0  0  0  0  0  0
    5.4641   -1.8660    0.0000 N   0  0  0  0  0  0  0  0  0  0  0  0
    2.8660   -1.3660    0.0000 N   0  0  0  0  0  0  0  0  0  0  0  0
    4.5981    1.6340    0.0000 C   0  0  0  0  0  0  0  0  0  0  0  0
    3.7320    1.1340    0.0000 C   0  0  0  0  0  0  0  0  0  0  0  0
    5.4641    1.1340    0.0000 C   0  0  0  0  0  0  0  0  0  0  0  0
    3.7320    0.1340    0.0000 C   0  0  0  0  0  0  0  0  0  0  0  0
    5.4641    0.1340    0.0000 C   0  0  0  0  0  0  0  0  0  0  0  0
    5.0981    2.5000    0.0000 C   0  0  0  0  0  0  0  0  0  0  0  0
    4.5981   -1.3660    0.0000 C   0  0  0  0  0  0  0  0  0  0  0  0
    3.7320   -1.8660    0.0000 C   0  0  0  0  0  0  0  0  0  0  0  0
    3.7320   -2.8660    0.0000 C   0  0  0  0  0  0  0  0  0  0  0  0
    5.4641   -2.8660    0.0000 C   0  0  0  0  0  0  0  0  0  0  0  0
    4.5981   -3.3660    0.0000 C   0  0  0  0  0  0  0  0  0  0  0  0
    6.5981    3.3660    0.0000 C   0  0  0  0  0  0  0  0  0  0  0  0
    6.0747    1.0263    0.0000 H   0  0  0  0  0  0  0  0  0  0  0  0
    5.6762    1.7166    0.0000 H   0  0  0  0  0  0  0  0  0  0  0  0
    3.5200    1.7166    0.0000 H   0  0  0  0  0  0  0  0  0  0  0  0
    3.1215    1.0263    0.0000 H   0  0  0  0  0  0  0  0  0  0  0  0
    5.6762   -0.4486    0.0000 H   0  0  0  0  0  0  0  0  0  0  0  0
    6.0747    0.2416    0.0000 H   0  0  0  0  0  0  0  0  0  0  0  0
    3.1215    0.2416    0.0000 H   0  0  0  0  0  0  0  0  0  0  0  0
    3.5200   -0.4486    0.0000 H   0  0  0  0  0  0  0  0  0  0  0  0
    3.4781    2.5000    0.0000 H   0  0  0  0  0  0  0  0  0  0  0  0
    3.1951   -3.1760    0.0000 H   0  0  0  0  0  0  0  0  0  0  0  0
    4.5981   -3.9860    0.0000 H   0  0  0  0  0  0  0  0  0  0  0  0
    7.1350    3.0560    0.0000 H   0  0  0  0  0  0  0  0  0  0  0  0
    6.9081    3.9030    0.0000 H   0  0  0  0  0  0  0  0  0  0  0  0
    6.0611    3.6760    0.0000 H   0  0  0  0  0  0  0  0  0  0  0  0
  1 19  1  0  0  0  0 
  2 10  1  0  0  0  0 
  2 30  1  0  0  0  0 
  3 15  1  0  0  0  0 
  3 21  1  0  0  0  0 
  4 15  2  0  0  0  0 
  5  9  1  0  0  0  0 
  6  9  2  0  0  0  0 
  7 13  1  0  0  0  0 
  7 14  1  0  0  0  0 
  7 16  1  0  0  0  0 
  8 16  1  0  0  0  0 
  8 19  2  0  0  0  0 
  9 17  1  0  0  0  0 
 10 11  1  0  0  0  0 
 10 12  1  0  0  0  0 
 10 15  1  0  0  0  0 
 11 13  1  0  0  0  0 
 11 24  1  0  0  0  0 
 11 25  1  0  0  0  0 
 12 14  1  0  0  0  0 
 12 22  1  0  0  0  0 
 12 23  1  0  0  0  0 
 13 28  1  0  0  0  0 
 13 29  1  0  0  0  0 
 14 26  1  0  0  0  0 
 14 27  1  0  0  0  0 
 16 17  2  0  0  0  0 
 17 18  1  0  0  0  0 
 18 20  2  0  0  0  0 
 18 31  1  0  0  0  0 
 19 20  1  0  0  0  0 
 20 32  1  0  0  0  0 
 21 33  1  0  0  0  0 
 21 34  1  0  0  0  0 
 21 35  1  0  0  0  0 
M  CHG  1   5  -1
M  CHG  1   9   1
M  END
> <cdk:Title>
68683765

> <cdk:Remark>
null

> <PUBCHEM_COMPOUND_CID>
68683765

> <PUBCHEM_COMPOUND_CANONICALIZED>
1

> <PUBCHEM_CACTVS_COMPLEXITY>
408

> <PUBCHEM_CACTVS_HBOND_ACCEPTOR>
8

> <PUBCHEM_CACTVS_HBOND_DONOR>
1

> <PUBCHEM_CACTVS_ROTATABLE_BOND>
3

> <PUBCHEM_CACTVS_SUBSKEYS>
AAADccBzOQAAAAAAAAAAAAAAAAAAAAAAAAAsWAAAAAAAAAABgAAAHwAECAAADEzBkg4z+JMYVgCpACbybwKCgCkhEiApmCF4dJqJYPLAmJGUYAhugILLyCY0AAAKAAAAAAAAAAAAAAAAAAAAAAAAAAAAAA==

> <PUBCHEM_IUPAC_OPENEYE_NAME>
methyl 1-(6-fluoro-3-nitro-2-pyridyl)-4-hydroxy-piperidine-4-carboxylate

> <PUBCHEM_IUPAC_CAS_NAME>
1-(6-fluoro-3-nitro-2-pyridinyl)-4-hydroxy-4-piperidinecarboxylic acid methyl ester

> <PUBCHEM_IUPAC_NAME>
methyl 1-(6-fluoro-3-nitropyridin-2-yl)-4-hydroxypiperidine-4-carboxylate

> <PUBCHEM_IUPAC_SYSTEMATIC_NAME>
methyl 1-(6-fluoranyl-3-nitro-pyridin-2-yl)-4-oxidanyl-piperidine-4-carboxylate

> <PUBCHEM_IUPAC_TRADITIONAL_NAME>
1-(6-fluoro-3-nitro-2-pyridyl)-4-hydroxy-isonipecotic acid methyl ester

> <PUBCHEM_IUPAC_INCHI>
InChI=1S/C12H14FN3O5/c1-21-11(17)12(18)4-6-15(7-5-12)10-8(16(19)20)2-3-9(13)14-10/h2-3,18H,4-7H2,1H3

> <PUBCHEM_IUPAC_INCHIKEY>
XYGWRUFNHIDZBL-UHFFFAOYSA-N

> <PUBCHEM_XLOGP3_AA>
1.2

> <PUBCHEM_EXACT_MASS>
299.091749

> <PUBCHEM_MOLECULAR_FORMULA>
C12H14FN3O5

> <PUBCHEM_MOLECULAR_WEIGHT>
299.255063

> <PUBCHEM_OPENEYE_CAN_SMILES>
COC(=O)C1(CCN(CC1)C2=C(C=CC(=N2)F)[N+](=O)[O-])O

> <PUBCHEM_OPENEYE_ISO_SMILES>
COC(=O)C1(CCN(CC1)C2=C(C=CC(=N2)F)[N+](=O)[O-])O

> <PUBCHEM_CACTVS_TPSA>
109

> <PUBCHEM_MONOISOTOPIC_WEIGHT>
299.091749

> <PUBCHEM_TOTAL_CHARGE>
0

> <PUBCHEM_HEAVY_ATOM_COUNT>
21

> <PUBCHEM_ATOM_DEF_STEREO_COUNT>
0

> <PUBCHEM_ATOM_UDEF_STEREO_COUNT>
0

> <PUBCHEM_BOND_DEF_STEREO_COUNT>
0

> <PUBCHEM_BOND_UDEF_STEREO_COUNT>
0

> <PUBCHEM_ISOTOPIC_ATOM_COUNT>
0

> <PUBCHEM_COMPONENT_COUNT>
1

> <PUBCHEM_CACTVS_TAUTO_COUNT>
1

> <PUBCHEM_COORDINATE_TYPE>
1

> <PUBCHEM_BONDANNOTATIONS>
16  17  8

$$$$
68683765
  CDK     0101151218

 35 36  0  0  0  0  0  0  0  0999 V2000
    6.3301   -3.3660    0.0000 F   0  0  0  0  0  0  0  0  0  0  0  0
    4.0981    2.5000    0.0000 O   0  0  0  0  0  0  0  0  0  0  0  0
    6.0981    2.5000    0.0000 O   0  0  0  0  0  0  0  0  0  0  0  0
    4.5981    3.3660    0.0000 O   0  0  0  0  0  0  0  0  0  0  0  0
    2.0000   -1.8660    0.0000 O   0  0  0  0  0  0  0  0  0  0  0  0
    2.8660   -0.3660    0.0000 O   0  0  0  0  0  0  0  0  0  0  0  0
    4.5981   -0.3660    0.0000 N   0  0  0  0  0  0  0  0  0  0  0  0
    5.4641   -1.8660    0.0000 N   0  0  0  0  0  0  0  0  0  0  0  0
    2.8660   -1.3660    0.0000 N   0  0  0  0  0  0  0  0  0  0  0  0
    4.5981    1.6340    0.0000 C   0  0  0  0  0  0  0  0  0  0  0  0
    3.7320    1.1340    0.0000 C   0  0  0  0  0  0  0  0  0  0  0  0
    5.4641    1.1340    0.0000 C   0  0  0  0  0  0  0  0  0  0  0  0
    3.7320    0.1340    0.0000 C   0  0  0  0  0  0  0  0  0  0  0  0
    5.4641    0.1340    0.0000 C   0  0  0  0  0  0  0  0  0  0  0  0
    5.0981    2.5000    0.0000 C   0  0  0  0  0  0  0  0  0  0  0  0
    4.5981   -1.3660    0.0000 C   0  0  0  0  0  0  0  0  0  0  0  0
    3.7320   -1.8660    0.0000 C   0  0  0  0  0  0  0  0  0  0  0  0
    3.7320   -2.8660    0.0000 C   0  0  0  0  0  0  0  0  0  0  0  0
    5.4641   -2.8660    0.0000 C   0  0  0  0  0  0  0  0  0  0  0  0
    4.5981   -3.3660    0.0000 C   0  0  0  0  0  0  0  0  0  0  0  0
    6.5981    3.3660    0.0000 C   0  0  0  0  0  0  0  0  0  0  0  0
    6.0747    1.0263    0.0000 H   0  0  0  0  0  0  0  0  0  0  0  0
    5.6762    1.7166    0.0000 H   0  0  0  0  0  0  0  0  0  0  0  0
    3.5200    1.7166    0.0000 H   0  0  0  0  0  0  0  0  0  0  0  0
    3.1215    1.0263    0.0000 H   0  0  0  0  0  0  0  0  0  0  0  0
    5.6762   -0.4486    0.0000 H   0  0  0  0  0  0  0  0  0  0  0  0
    6.0747    0.2416    0.0000 H   0  0  0  0  0  0  0  0  0  0  0  0
    3.1215    0.2416    0.0000 H   0  0  0  0  0  0  0  0  0  0  0  0
    3.5200   -0.4486    0.0000 H   0  0  0  0  0  0  0  0  0  0  0  0
    3.4781    2.5000    0.0000 H   0  0  0  0  0  0  0  0  0  0  0  0
    3.1951   -3.1760    0.0000 H   0  0  0  0  0  0  0  0  0  0  0  0
    4.5981   -3.9860    0.0000 H   0  0  0  0  0  0  0  0  0  0  0  0
    7.1350    3.0560    0.0000 H   0  0  0  0  0  0  0  0  0  0  0  0
    6.9081    3.9030    0.0000 H   0  0  0  0  0  0  0  0  0  0  0  0
    6.0611    3.6760    0.0000 H   0  0  0  0  0  0  0  0  0  0  0  0
  1 19  1  0  0  0  0 
  2 10  1  0  0  0  0 
  2 30  1  0  0  0  0 
  3 15  1  0  0  0  0 
  3 21  1  0  0  0  0 
  4 15  2  0  0  0  0 
  5  9  1  0  0  0  0 
  6  9  2  0  0  0  0 
  7 13  1  0  0  0  0 
  7 14  1  0  0  0  0 
  7 16  1  0  0  0  0 
  8 16  1  0  0  0  0 
  8 19  2  0  0  0  0 
  9 17  1  0  0  0  0 
 10 11  1  0  0  0  0 
 10 12  1  0  0  0  0 
 10 15  1  0  0  0  0 
 11 13  1  0  0  0  0 
 11 24  1  0  0  0  0 
 11 25  1  0  0  0  0 
 12 14  1  0  0  0  0 
 12 22  1  0  0  0  0 
 12 23  1  0  0  0  0 
 13 28  1  0  0  0  0 
 13 29  1  0  0  0  0 
 14 26  1  0  0  0  0 
 14 27  1  0  0  0  0 
 16 17  2  0  0  0  0 
 17 18  1  0  0  0  0 
 18 20  2  0  0  0  0 
 18 31  1  0  0  0  0 
 19 20  1  0  0  0  0 
 20 32  1  0  0  0  0 
 21 33  1  0  0  0  0 
 21 34  1  0  0  0  0 
 21 35  1  0  0  0  0 
M  CHG  1   5  -1
M  CHG  1   9   1
M  END
> <cdk:Title>
68683765

> <cdk:Remark>
null

> <PUBCHEM_COMPOUND_CID>
68683765

> <PUBCHEM_COMPOUND_CANONICALIZED>
1

> <PUBCHEM_CACTVS_COMPLEXITY>
408

> <PUBCHEM_CACTVS_HBOND_ACCEPTOR>
8

> <PUBCHEM_CACTVS_HBOND_DONOR>
1

> <PUBCHEM_CACTVS_ROTATABLE_BOND>
3

> <PUBCHEM_CACTVS_SUBSKEYS>
AAADccBzOQAAAAAAAAAAAAAAAAAAAAAAAAAsWAAAAAAAAAABgAAAHwAECAAADEzBkg4z+JMYVgCpACbybwKCgCkhEiApmCF4dJqJYPLAmJGUYAhugILLyCY0AAAKAAAAAAAAAAAAAAAAAAAAAAAAAAAAAA==

> <PUBCHEM_IUPAC_OPENEYE_NAME>
methyl 1-(6-fluoro-3-nitro-2-pyridyl)-4-hydroxy-piperidine-4-carboxylate

> <PUBCHEM_IUPAC_CAS_NAME>
1-(6-fluoro-3-nitro-2-pyridinyl)-4-hydroxy-4-piperidinecarboxylic acid methyl ester

> <PUBCHEM_IUPAC_NAME>
methyl 1-(6-fluoro-3-nitropyridin-2-yl)-4-hydroxypiperidine-4-carboxylate

> <PUBCHEM_IUPAC_SYSTEMATIC_NAME>
methyl 1-(6-fluoranyl-3-nitro-pyridin-2-yl)-4-oxidanyl-piperidine-4-carboxylate

> <PUBCHEM_IUPAC_TRADITIONAL_NAME>
1-(6-fluoro-3-nitro-2-pyridyl)-4-hydroxy-isonipecotic acid methyl ester

> <PUBCHEM_IUPAC_INCHI>
InChI=1S/C12H14FN3O5/c1-21-11(17)12(18)4-6-15(7-5-12)10-8(16(19)20)2-3-9(13)14-10/h2-3,18H,4-7H2,1H3

> <PUBCHEM_IUPAC_INCHIKEY>
XYGWRUFNHIDZBL-UHFFFAOYSA-N

> <PUBCHEM_XLOGP3_AA>
1.2

> <PUBCHEM_EXACT_MASS>
299.091749

> <PUBCHEM_MOLECULAR_FORMULA>
C12H14FN3O5

> <PUBCHEM_MOLECULAR_WEIGHT>
299.255063

> <PUBCHEM_OPENEYE_CAN_SMILES>
COC(=O)C1(CCN(CC1)C2=C(C=CC(=N2)F)[N+](=O)[O-])O

> <PUBCHEM_OPENEYE_ISO_SMILES>
COC(=O)C1(CCN(CC1)C2=C(C=CC(=N2)F)[N+](=O)[O-])O

> <PUBCHEM_CACTVS_TPSA>
109

> <PUBCHEM_MONOISOTOPIC_WEIGHT>
299.091749

> <PUBCHEM_TOTAL_CHARGE>
0

> <PUBCHEM_HEAVY_ATOM_COUNT>
21

> <PUBCHEM_ATOM_DEF_STEREO_COUNT>
0

> <PUBCHEM_ATOM_UDEF_STEREO_COUNT>
0

> <PUBCHEM_BOND_DEF_STEREO_COUNT>
0

> <PUBCHEM_BOND_UDEF_STEREO_COUNT>
0

> <PUBCHEM_ISOTOPIC_ATOM_COUNT>
0

> <PUBCHEM_COMPONENT_COUNT>
1

> <PUBCHEM_CACTVS_TAUTO_COUNT>
1

> <PUBCHEM_COORDINATE_TYPE>
1

> <PUBCHEM_BONDANNOTATIONS>
16  17  8

$$$$
68683765
  CDK     0101151218

 35 36  0  0  0  0  0  0  0  0999 V2000
    6.3301   -3.3660    0.0000 F   0  0  0  0  0  0  0  0  0  0  0  0
    4.0981    2.5000    0.0000 O   0  0  0  0  0  0  0  0  0  0  0  0
    6.0981    2.5000    0.0000 O   0  0  0  0  0  0  0  0  0  0  0  0
    4.5981    3.3660    0.0000 O   0  0  0  0  0  0  0  0  0  0  0  0
    2.0000   -1.8660    0.0000 O   0  0  0  0  0  0  0  0  0  0  0  0
    2.8660   -0.3660    0.0000 O   0  0  0  0  0  0  0  0  0  0  0  0
    4.5981   -0.3660    0.0000 N   0  0  0  0  0  0  0  0  0  0  0  0
    5.4641   -1.8660    0.0000 N   0  0  0  0  0  0  0  0  0  0  0  0
    2.8660   -1.3660    0.0000 N   0  0  0  0  0  0  0  0  0  0  0  0
    4.5981    1.6340    0.0000 C   0  0  0  0  0  0  0  0  0  0  0  0
    3.7320    1.1340    0.0000 C   0  0  0  0  0  0  0  0  0  0  0  0
    5.4641    1.1340    0.0000 C   0  0  0  0  0  0  0  0  0  0  0  0
    3.7320    0.1340    0.0000 C   0  0  0  0  0  0  0  0  0  0  0  0
    5.4641    0.1340    0.0000 C   0  0  0  0  0  0  0  0  0  0  0  0
    5.0981    2.5000    0.0000 C   0  0  0  0  0  0  0  0  0  0  0  0
    4.5981   -1.3660    0.0000 C   0  0  0  0  0  0  0  0  0  0  0  0
    3.7320   -1.8660    0.0000 C   0  0  0  0  0  0  0  0  0  0  0  0
    3.7320   -2.8660    0.0000 C   0  0  0  0  0  0  0  0  0  0  0  0
    5.4641   -2.8660    0.0000 C   0  0  0  0  0  0  0  0  0  0  0  0
    4.5981   -3.3660    0.0000 C   0  0  0  0  0  0  0  0  0  0  0  0
    6.5981    3.3660    0.0000 C   0  0  0  0  0  0  0  0  0  0  0  0
    6.0747    1.0263    0.0000 H   0  0  0  0  0  0  0  0  0  0  0  0
    5.6762    1.7166    0.0000 H   0  0  0  0  0  0  0  0  0  0  0  0
    3.5200    1.7166    0.0000 H   0  0  0  0  0  0  0  0  0  0  0  0
    3.1215    1.0263    0.0000 H   0  0  0  0  0  0  0  0  0  0  0  0
    5.6762   -0.4486    0.0000 H   0  0  0  0  0  0  0  0  0  0  0  0
    6.0747    0.2416    0.0000 H   0  0  0  0  0  0  0  0  0  0  0  0
    3.1215    0.2416    0.0000 H   0  0  0  0  0  0  0  0  0  0  0  0
    3.5200   -0.4486    0.0000 H   0  0  0  0  0  0  0  0  0  0  0  0
    3.4781    2.5000    0.0000 H   0  0  0  0  0  0  0  0  0  0  0  0
    3.1951   -3.1760    0.0000 H   0  0  0  0  0  0  0  0  0  0  0  0
    4.5981   -3.9860    0.0000 H   0  0  0  0  0  0  0  0  0  0  0  0
    7.1350    3.0560    0.0000 H   0  0  0  0  0  0  0  0  0  0  0  0
    6.9081    3.9030    0.0000 H   0  0  0  0  0  0  0  0  0  0  0  0
    6.0611    3.6760    0.0000 H   0  0  0  0  0  0  0  0  0  0  0  0
  1 19  1  0  0  0  0 
  2 10  1  0  0  0  0 
  2 30  1  0  0  0  0 
  3 15  1  0  0  0  0 
  3 21  1  0  0  0  0 
  4 15  2  0  0  0  0 
  5  9  1  0  0  0  0 
  6  9  2  0  0  0  0 
  7 13  1  0  0  0  0 
  7 14  1  0  0  0  0 
  7 16  1  0  0  0  0 
  8 16  1  0  0  0  0 
  8 19  2  0  0  0  0 
  9 17  1  0  0  0  0 
 10 11  1  0  0  0  0 
 10 12  1  0  0  0  0 
 10 15  1  0  0  0  0 
 11 13  1  0  0  0  0 
 11 24  1  0  0  0  0 
 11 25  1  0  0  0  0 
 12 14  1  0  0  0  0 
 12 22  1  0  0  0  0 
 12 23  1  0  0  0  0 
 13 28  1  0  0  0  0 
 13 29  1  0  0  0  0 
 14 26  1  0  0  0  0 
 14 27  1  0  0  0  0 
 16 17  2  0  0  0  0 
 17 18  1  0  0  0  0 
 18 20  2  0  0  0  0 
 18 31  1  0  0  0  0 
 19 20  1  0  0  0  0 
 20 32  1  0  0  0  0 
 21 33  1  0  0  0  0 
 21 34  1  0  0  0  0 
 21 35  1  0  0  0  0 
M  CHG  1   5  -1
M  CHG  1   9   1
M  END
> <cdk:Title>
68683765

> <cdk:Remark>
null

> <PUBCHEM_COMPOUND_CID>
68683765

> <PUBCHEM_COMPOUND_CANONICALIZED>
1

> <PUBCHEM_CACTVS_COMPLEXITY>
408

> <PUBCHEM_CACTVS_HBOND_ACCEPTOR>
8

> <PUBCHEM_CACTVS_HBOND_DONOR>
1

> <PUBCHEM_CACTVS_ROTATABLE_BOND>
3

> <PUBCHEM_CACTVS_SUBSKEYS>
AAADccBzOQAAAAAAAAAAAAAAAAAAAAAAAAAsWAAAAAAAAAABgAAAHwAECAAADEzBkg4z+JMYVgCpACbybwKCgCkhEiApmCF4dJqJYPLAmJGUYAhugILLyCY0AAAKAAAAAAAAAAAAAAAAAAAAAAAAAAAAAA==

> <PUBCHEM_IUPAC_OPENEYE_NAME>
methyl 1-(6-fluoro-3-nitro-2-pyridyl)-4-hydroxy-piperidine-4-carboxylate

> <PUBCHEM_IUPAC_CAS_NAME>
1-(6-fluoro-3-nitro-2-pyridinyl)-4-hydroxy-4-piperidinecarboxylic acid methyl ester

> <PUBCHEM_IUPAC_NAME>
methyl 1-(6-fluoro-3-nitropyridin-2-yl)-4-hydroxypiperidine-4-carboxylate

> <PUBCHEM_IUPAC_SYSTEMATIC_NAME>
methyl 1-(6-fluoranyl-3-nitro-pyridin-2-yl)-4-oxidanyl-piperidine-4-carboxylate

> <PUBCHEM_IUPAC_TRADITIONAL_NAME>
1-(6-fluoro-3-nitro-2-pyridyl)-4-hydroxy-isonipecotic acid methyl ester

> <PUBCHEM_IUPAC_INCHI>
InChI=1S/C12H14FN3O5/c1-21-11(17)12(18)4-6-15(7-5-12)10-8(16(19)20)2-3-9(13)14-10/h2-3,18H,4-7H2,1H3

> <PUBCHEM_IUPAC_INCHIKEY>
XYGWRUFNHIDZBL-UHFFFAOYSA-N

> <PUBCHEM_XLOGP3_AA>
1.2

> <PUBCHEM_EXACT_MASS>
299.091749

> <PUBCHEM_MOLECULAR_FORMULA>
C12H14FN3O5

> <PUBCHEM_MOLECULAR_WEIGHT>
299.255063

> <PUBCHEM_OPENEYE_CAN_SMILES>
COC(=O)C1(CCN(CC1)C2=C(C=CC(=N2)F)[N+](=O)[O-])O

> <PUBCHEM_OPENEYE_ISO_SMILES>
COC(=O)C1(CCN(CC1)C2=C(C=CC(=N2)F)[N+](=O)[O-])O

> <PUBCHEM_CACTVS_TPSA>
109

> <PUBCHEM_MONOISOTOPIC_WEIGHT>
299.091749

> <PUBCHEM_TOTAL_CHARGE>
0

> <PUBCHEM_HEAVY_ATOM_COUNT>
21

> <PUBCHEM_ATOM_DEF_STEREO_COUNT>
0

> <PUBCHEM_ATOM_UDEF_STEREO_COUNT>
0

> <PUBCHEM_BOND_DEF_STEREO_COUNT>
0

> <PUBCHEM_BOND_UDEF_STEREO_COUNT>
0

> <PUBCHEM_ISOTOPIC_ATOM_COUNT>
0

> <PUBCHEM_COMPONENT_COUNT>
1

> <PUBCHEM_CACTVS_TAUTO_COUNT>
1

> <PUBCHEM_COORDINATE_TYPE>
1

> <PUBCHEM_BONDANNOTATIONS>
16  17  8

$$$$
