46420414
  CDK     0104150955

 69 71  0  0  0  0  0  0  0  0999 V2000
    9.8660    1.2429    0.0000 O   0  0  0  0  0  0  0  0  0  0  0  0
    5.4804   -1.2575    0.0000 O   0  0  0  0  0  0  0  0  0  0  0  0
    2.0000   -0.2229    0.0000 O   0  0  0  0  0  0  0  0  0  0  0  0
    2.0000    1.7771    0.0000 O   0  0  0  0  0  0  0  0  0  0  0  0
   10.7263   -0.2604    0.0000 N   0  0  0  0  0  0  0  0  0  0  0  0
    6.3981    0.2563    0.0000 N   0  0  0  0  0  0  0  0  0  0  0  0
    5.4920    1.8118    0.0000 N   0  0  0  0  0  0  0  0  0  0  0  0
   11.5942    0.2362    0.0000 C   0  0  3  0  0  0  0  0  0  0  0  0
   11.5981    1.2362    0.0000 C   0  0  0  0  0  0  0  0  0  0  0  0
   12.4583   -0.2671    0.0000 C   0  0  0  0  0  0  0  0  0  0  0  0
   12.4660    1.7329    0.0000 C   0  0  0  0  0  0  0  0  0  0  0  0
   10.7340    1.7396    0.0000 C   0  0  0  0  0  0  0  0  0  0  0  0
   12.4544   -1.2671    0.0000 C   0  0  0  0  0  0  0  0  0  0  0  0
   13.3262    0.2296    0.0000 C   0  0  0  0  0  0  0  0  0  0  0  0
    8.9942   -0.2537    0.0000 C   0  0  0  0  0  0  0  0  0  0  0  0
   14.1865   -1.2738    0.0000 C   0  0  0  0  0  0  0  0  0  0  0  0
    9.8622    0.2429    0.0000 C   0  0  0  0  0  0  0  0  0  0  0  0
   15.0506   -1.7771    0.0000 C   0  0  0  0  0  0  0  0  0  0  0  0
    8.1301    0.2496    0.0000 C   0  0  0  0  0  0  0  0  0  0  0  0
   13.3185   -1.7704    0.0000 C   0  0  0  0  0  0  0  0  0  0  0  0
   14.1903   -0.2738    0.0000 C   0  0  0  0  0  0  0  0  0  0  0  0
    7.2622   -0.2471    0.0000 C   0  0  0  0  0  0  0  0  0  0  0  0
   15.9185   -1.2804    0.0000 C   0  0  0  0  0  0  0  0  0  0  0  0
   15.0467   -2.7771    0.0000 C   0  0  0  0  0  0  0  0  0  0  0  0
    5.4920   -0.2576    0.0000 C   0  0  0  0  0  0  0  0  0  0  0  0
    4.5981    0.2771    0.0000 C   0  0  0  0  0  0  0  0  0  0  0  0
    6.3981    1.2979    0.0000 C   0  0  0  0  0  0  0  0  0  0  0  0
    4.5981    1.2771    0.0000 C   0  0  0  0  0  0  0  0  0  0  0  0
    3.7320   -0.2229    0.0000 C   0  0  0  0  0  0  0  0  0  0  0  0
    3.7320    1.7771    0.0000 C   0  0  0  0  0  0  0  0  0  0  0  0
    2.8660    0.2771    0.0000 C   0  0  0  0  0  0  0  0  0  0  0  0
    2.8660    1.2771    0.0000 C   0  0  0  0  0  0  0  0  0  0  0  0
    2.0000   -1.2229    0.0000 C   0  0  0  0  0  0  0  0  0  0  0  0
    2.0000    2.7771    0.0000 C   0  0  0  0  0  0  0  0  0  0  0  0
   11.5918   -0.3838    0.0000 H   0  0  0  0  0  0  0  0  0  0  0  0
   11.0599    0.9283    0.0000 H   0  0  0  0  0  0  0  0  0  0  0  0
   10.7239   -0.8804    0.0000 H   0  0  0  0  0  0  0  0  0  0  0  0
   12.7739    1.1948    0.0000 H   0  0  0  0  0  0  0  0  0  0  0  0
   13.0041    2.0408    0.0000 H   0  0  0  0  0  0  0  0  0  0  0  0
   12.1581    2.2710    0.0000 H   0  0  0  0  0  0  0  0  0  0  0  0
   11.0460    2.2753    0.0000 H   0  0  0  0  0  0  0  0  0  0  0  0
   10.1982    2.0516    0.0000 H   0  0  0  0  0  0  0  0  0  0  0  0
   10.4219    1.2038    0.0000 H   0  0  0  0  0  0  0  0  0  0  0  0
   11.9163   -1.5750    0.0000 H   0  0  0  0  0  0  0  0  0  0  0  0
   13.3286    0.8496    0.0000 H   0  0  0  0  0  0  0  0  0  0  0  0
    8.5939   -0.7271    0.0000 H   0  0  0  0  0  0  0  0  0  0  0  0
    9.3909   -0.7302    0.0000 H   0  0  0  0  0  0  0  0  0  0  0  0
    8.5305    0.7230    0.0000 H   0  0  0  0  0  0  0  0  0  0  0  0
    7.7334    0.7261    0.0000 H   0  0  0  0  0  0  0  0  0  0  0  0
   15.0530   -1.1571    0.0000 H   0  0  0  0  0  0  0  0  0  0  0  0
   13.3161   -2.3904    0.0000 H   0  0  0  0  0  0  0  0  0  0  0  0
   14.7285    0.0342    0.0000 H   0  0  0  0  0  0  0  0  0  0  0  0
    6.8618   -0.7205    0.0000 H   0  0  0  0  0  0  0  0  0  0  0  0
    7.6589   -0.7235    0.0000 H   0  0  0  0  0  0  0  0  0  0  0  0
   14.4267   -2.7747    0.0000 H   0  0  0  0  0  0  0  0  0  0  0  0
   16.2264   -1.8186    0.0000 H   0  0  0  0  0  0  0  0  0  0  0  0
   16.4566   -0.9725    0.0000 H   0  0  0  0  0  0  0  0  0  0  0  0
   15.6106   -0.7423    0.0000 H   0  0  0  0  0  0  0  0  0  0  0  0
   15.0443   -3.3971    0.0000 H   0  0  0  0  0  0  0  0  0  0  0  0
   15.6667   -2.7795    0.0000 H   0  0  0  0  0  0  0  0  0  0  0  0
    6.9338    1.6100    0.0000 H   0  0  0  0  0  0  0  0  0  0  0  0
    3.7320   -0.8429    0.0000 H   0  0  0  0  0  0  0  0  0  0  0  0
    3.7320    2.3971    0.0000 H   0  0  0  0  0  0  0  0  0  0  0  0
    1.3800   -1.2229    0.0000 H   0  0  0  0  0  0  0  0  0  0  0  0
    2.0000   -1.8429    0.0000 H   0  0  0  0  0  0  0  0  0  0  0  0
    2.6200   -1.2229    0.0000 H   0  0  0  0  0  0  0  0  0  0  0  0
    2.6200    2.7771    0.0000 H   0  0  0  0  0  0  0  0  0  0  0  0
    2.0000    3.3971    0.0000 H   0  0  0  0  0  0  0  0  0  0  0  0
    1.3800    2.7771    0.0000 H   0  0  0  0  0  0  0  0  0  0  0  0
  1 17  2  0  0  0  0 
  2 25  2  0  0  0  0 
  3 31  1  0  0  0  0 
  3 33  1  0  0  0  0 
  4 32  1  0  0  0  0 
  4 34  1  0  0  0  0 
  5  8  1  0  0  0  0 
  5 17  1  0  0  0  0 
  5 37  1  0  0  0  0 
  6 22  1  0  0  0  0 
  6 25  1  0  0  0  0 
  6 27  1  0  0  0  0 
  7 27  2  0  0  0  0 
  7 28  1  0  0  0  0 
  8  9  1  0  0  0  0 
  8 10  1  0  0  0  0 
  8 35  1  0  0  0  0 
  9 11  1  0  0  0  0 
  9 12  1  0  0  0  0 
  9 36  1  0  0  0  0 
 10 13  2  0  0  0  0 
 10 14  1  0  0  0  0 
 11 38  1  0  0  0  0 
 11 39  1  0  0  0  0 
 11 40  1  0  0  0  0 
 12 41  1  0  0  0  0 
 12 42  1  0  0  0  0 
 12 43  1  0  0  0  0 
 13 20  1  0  0  0  0 
 13 44  1  0  0  0  0 
 14 21  2  0  0  0  0 
 14 45  1  0  0  0  0 
 15 17  1  0  0  0  0 
 15 19  1  0  0  0  0 
 15 46  1  0  0  0  0 
 15 47  1  0  0  0  0 
 16 18  1  0  0  0  0 
 16 20  2  0  0  0  0 
 16 21  1  0  0  0  0 
 18 23  1  0  0  0  0 
 18 24  1  0  0  0  0 
 18 50  1  0  0  0  0 
 19 22  1  0  0  0  0 
 19 48  1  0  0  0  0 
 19 49  1  0  0  0  0 
 20 51  1  0  0  0  0 
 21 52  1  0  0  0  0 
 22 53  1  0  0  0  0 
 22 54  1  0  0  0  0 
 23 56  1  0  0  0  0 
 23 57  1  0  0  0  0 
 23 58  1  0  0  0  0 
 24 55  1  0  0  0  0 
 24 59  1  0  0  0  0 
 24 60  1  0  0  0  0 
 25 26  1  0  0  0  0 
 26 28  1  0  0  0  0 
 26 29  2  0  0  0  0 
 27 61  1  0  0  0  0 
 28 30  2  0  0  0  0 
 29 31  1  0  0  0  0 
 29 62  1  0  0  0  0 
 30 32  1  0  0  0  0 
 30 63  1  0  0  0  0 
 31 32  2  0  0  0  0 
 33 64  1  0  0  0  0 
 33 65  1  0  0  0  0 
 33 66  1  0  0  0  0 
 34 67  1  0  0  0  0 
 34 68  1  0  0  0  0 
 34 69  1  0  0  0  0 
M  END
> <cdk:Title>
46420414

> <cdk:Remark>
null

> <PUBCHEM_COMPOUND_CID>
46420414

> <PUBCHEM_COMPOUND_CANONICALIZED>
1

> <PUBCHEM_CACTVS_COMPLEXITY>
702

> <PUBCHEM_CACTVS_HBOND_ACCEPTOR>
5

> <PUBCHEM_CACTVS_HBOND_DONOR>
1

> <PUBCHEM_CACTVS_ROTATABLE_BOND>
10

> <PUBCHEM_CACTVS_SUBSKEYS>
AAADcfB7OAAAAAAAAAAAAAAAAAAAAAAAAAAwYIAAAAAAAACBQAAAHgAQAAAADSzBmAYzxoPABACoAiVTdACCCAEkIgAJiIEO7MgNJjqE/ZuEMapm1hmK6ce+3NPO4EABAgACQADAgAIEAASAAAAAAAAAAA==

> <PUBCHEM_IUPAC_OPENEYE_NAME>
4-(6,7-dimethoxy-4-oxo-quinazolin-3-yl)-N-[1-(4-isopropylphenyl)-2-methyl-propyl]butanamide

> <PUBCHEM_IUPAC_CAS_NAME>
4-(6,7-dimethoxy-4-oxo-3-quinazolinyl)-N-[2-methyl-1-(4-propan-2-ylphenyl)propyl]butanamide

> <PUBCHEM_IUPAC_NAME>
4-(6,7-dimethoxy-4-oxoquinazolin-3-yl)-N-[2-methyl-1-(4-propan-2-ylphenyl)propyl]butanamide

> <PUBCHEM_IUPAC_SYSTEMATIC_NAME>
4-(6,7-dimethoxy-4-oxidanylidene-quinazolin-3-yl)-N-[2-methyl-1-(4-propan-2-ylphenyl)propyl]butanamide

> <PUBCHEM_IUPAC_TRADITIONAL_NAME>
4-(4-keto-6,7-dimethoxy-quinazolin-3-yl)-N-(2-methyl-1-p-cumenyl-propyl)butyramide

> <PUBCHEM_IUPAC_INCHI>
InChI=1S/C27H35N3O4/c1-17(2)19-9-11-20(12-10-19)26(18(3)4)29-25(31)8-7-13-30-16-28-22-15-24(34-6)23(33-5)14-21(22)27(30)32/h9-12,14-18,26H,7-8,13H2,1-6H3,(H,29,31)

> <PUBCHEM_IUPAC_INCHIKEY>
RGOHUXOVMGWPQD-UHFFFAOYSA-N

> <PUBCHEM_XLOGP3_AA>
4.4

> <PUBCHEM_EXACT_MASS>
465.262757

> <PUBCHEM_MOLECULAR_FORMULA>
C27H35N3O4

> <PUBCHEM_MOLECULAR_WEIGHT>
465.5845

> <PUBCHEM_OPENEYE_CAN_SMILES>
CC(C)C1=CC=C(C=C1)C(C(C)C)NC(=O)CCCN2C=NC3=CC(=C(C=C3C2=O)OC)OC

> <PUBCHEM_OPENEYE_ISO_SMILES>
CC(C)C1=CC=C(C=C1)C(C(C)C)NC(=O)CCCN2C=NC3=CC(=C(C=C3C2=O)OC)OC

> <PUBCHEM_CACTVS_TPSA>
80.2

> <PUBCHEM_MONOISOTOPIC_WEIGHT>
465.262757

> <PUBCHEM_TOTAL_CHARGE>
0

> <PUBCHEM_HEAVY_ATOM_COUNT>
34

> <PUBCHEM_ATOM_DEF_STEREO_COUNT>
0

> <PUBCHEM_ATOM_UDEF_STEREO_COUNT>
1

> <PUBCHEM_BOND_DEF_STEREO_COUNT>
0

> <PUBCHEM_BOND_UDEF_STEREO_COUNT>
0

> <PUBCHEM_ISOTOPIC_ATOM_COUNT>
0

> <PUBCHEM_COMPONENT_COUNT>
1

> <PUBCHEM_CACTVS_TAUTO_COUNT>
2

> <PUBCHEM_COORDINATE_TYPE>
1

> <PUBCHEM_BONDANNOTATIONS>
10  13  8

$$$$
39022188
  CDK     0104150955

 62 64  0  0  0  0  0  0  0  0999 V2000
    9.9058    7.6783    0.0000 F   0  0  0  0  0  0  0  0  0  0  0  0
    4.5981   -4.6783    0.0000 O   0  0  0  0  0  0  0  0  0  0  0  0
    2.8660   -3.6783    0.0000 O   0  0  0  0  0  0  0  0  0  0  0  0
    3.7320   -0.1783    0.0000 O   0  0  0  0  0  0  0  0  0  0  0  0
    8.2788    4.0241    0.0000 N   0  0  0  0  0  0  0  0  0  0  0  0
    7.3007    3.8162    0.0000 N   0  0  0  0  0  0  0  0  0  0  0  0
    5.4641   -0.1783    0.0000 N   0  0  0  0  0  0  0  0  0  0  0  0
    9.7734    3.0536    0.0000 N   0  0  0  0  0  0  0  0  0  0  0  0
    8.5255    0.4587    0.0000 N   0  0  0  0  0  0  0  0  0  0  0  0
    6.3301    2.3217    0.0000 C   0  0  0  0  0  0  0  0  0  0  0  0
    6.3301    1.3217    0.0000 C   0  0  0  0  0  0  0  0  0  0  0  0
    7.1962    2.8217    0.0000 C   0  0  0  0  0  0  0  0  0  0  0  0
    5.4641    0.8217    0.0000 C   0  0  0  0  0  0  0  0  0  0  0  0
    8.1097    2.4150    0.0000 C   0  0  0  0  0  0  0  0  0  0  0  0
    8.7788    3.1581    0.0000 C   0  0  0  0  0  0  0  0  0  0  0  0
    8.6856    4.9377    0.0000 C   0  0  0  0  0  0  0  0  0  0  0  0
    4.5981   -0.6783    0.0000 C   0  0  0  0  0  0  0  0  0  0  0  0
    5.4641   -6.1783    0.0000 C   0  0  0  0  0  0  0  0  0  0  0  0
    4.5981   -1.6783    0.0000 C   0  0  0  0  0  0  0  0  0  0  0  0
    5.4641   -5.1783    0.0000 C   0  0  0  0  0  0  0  0  0  0  0  0
    6.3301   -6.6783    0.0000 C   0  0  0  0  0  0  0  0  0  0  0  0
    4.5981   -3.6783    0.0000 C   0  0  0  0  0  0  0  0  0  0  0  0
    3.7320   -2.1783    0.0000 C   0  0  0  0  0  0  0  0  0  0  0  0
    3.7320   -3.1783    0.0000 C   0  0  0  0  0  0  0  0  0  0  0  0
    5.4641   -2.1783    0.0000 C   0  0  0  0  0  0  0  0  0  0  0  0
    9.6801    5.0422    0.0000 C   0  0  0  0  0  0  0  0  0  0  0  0
    8.0978    5.7467    0.0000 C   0  0  0  0  0  0  0  0  0  0  0  0
    5.4641   -3.1783    0.0000 C   0  0  0  0  0  0  0  0  0  0  0  0
    8.3176    1.4368    0.0000 C   0  0  0  0  0  0  0  0  0  0  0  0
    6.3301   -7.6783    0.0000 C   0  0  0  0  0  0  0  0  0  0  0  0
   10.0868    5.9558    0.0000 C   0  0  0  0  0  0  0  0  0  0  0  0
    8.5045    6.6602    0.0000 C   0  0  0  0  0  0  0  0  0  0  0  0
    9.4990    6.7648    0.0000 C   0  0  0  0  0  0  0  0  0  0  0  0
    2.0000   -3.1783    0.0000 C   0  0  0  0  0  0  0  0  0  0  0  0
    6.1181    2.9043    0.0000 H   0  0  0  0  0  0  0  0  0  0  0  0
    5.7196    2.2140    0.0000 H   0  0  0  0  0  0  0  0  0  0  0  0
    6.5422    0.7391    0.0000 H   0  0  0  0  0  0  0  0  0  0  0  0
    6.9407    1.4293    0.0000 H   0  0  0  0  0  0  0  0  0  0  0  0
    5.2520    1.4043    0.0000 H   0  0  0  0  0  0  0  0  0  0  0  0
    4.8535    0.7140    0.0000 H   0  0  0  0  0  0  0  0  0  0  0  0
    6.0010   -0.4883    0.0000 H   0  0  0  0  0  0  0  0  0  0  0  0
    4.8535   -6.0706    0.0000 H   0  0  0  0  0  0  0  0  0  0  0  0
    5.2520   -6.7609    0.0000 H   0  0  0  0  0  0  0  0  0  0  0  0
    6.0747   -5.2860    0.0000 H   0  0  0  0  0  0  0  0  0  0  0  0
    5.6762   -4.5957    0.0000 H   0  0  0  0  0  0  0  0  0  0  0  0
    6.9407   -6.7860    0.0000 H   0  0  0  0  0  0  0  0  0  0  0  0
    6.5422   -6.0957    0.0000 H   0  0  0  0  0  0  0  0  0  0  0  0
    3.1951   -1.8683    0.0000 H   0  0  0  0  0  0  0  0  0  0  0  0
    6.0010   -1.8683    0.0000 H   0  0  0  0  0  0  0  0  0  0  0  0
   10.0255    2.4872    0.0000 H   0  0  0  0  0  0  0  0  0  0  0  0
   10.1378    3.5552    0.0000 H   0  0  0  0  0  0  0  0  0  0  0  0
   10.0445    4.5406    0.0000 H   0  0  0  0  0  0  0  0  0  0  0  0
    7.4812    5.6819    0.0000 H   0  0  0  0  0  0  0  0  0  0  0  0
    6.0010   -3.4883    0.0000 H   0  0  0  0  0  0  0  0  0  0  0  0
    5.7101   -7.6783    0.0000 H   0  0  0  0  0  0  0  0  0  0  0  0
    6.3301   -8.2983    0.0000 H   0  0  0  0  0  0  0  0  0  0  0  0
    6.9501   -7.6783    0.0000 H   0  0  0  0  0  0  0  0  0  0  0  0
   10.7034    6.0206    0.0000 H   0  0  0  0  0  0  0  0  0  0  0  0
    8.1401    7.1618    0.0000 H   0  0  0  0  0  0  0  0  0  0  0  0
    2.3100   -2.6414    0.0000 H   0  0  0  0  0  0  0  0  0  0  0  0
    1.4631   -2.8683    0.0000 H   0  0  0  0  0  0  0  0  0  0  0  0
    1.6900   -3.7152    0.0000 H   0  0  0  0  0  0  0  0  0  0  0  0
  1 33  1  0  0  0  0 
  2 20  1  0  0  0  0 
  2 22  1  0  0  0  0 
  3 24  1  0  0  0  0 
  3 34  1  0  0  0  0 
  4 17  2  0  0  0  0 
  5  6  1  0  0  0  0 
  5 15  1  0  0  0  0 
  5 16  1  0  0  0  0 
  6 12  2  0  0  0  0 
  7 13  1  0  0  0  0 
  7 17  1  0  0  0  0 
  7 41  1  0  0  0  0 
  8 15  1  0  0  0  0 
  8 50  1  0  0  0  0 
  8 51  1  0  0  0  0 
  9 29  3  0  0  0  0 
 10 11  1  0  0  0  0 
 10 12  1  0  0  0  0 
 10 35  1  0  0  0  0 
 10 36  1  0  0  0  0 
 11 13  1  0  0  0  0 
 11 37  1  0  0  0  0 
 11 38  1  0  0  0  0 
 12 14  1  0  0  0  0 
 13 39  1  0  0  0  0 
 13 40  1  0  0  0  0 
 14 15  2  0  0  0  0 
 14 29  1  0  0  0  0 
 16 26  2  0  0  0  0 
 16 27  1  0  0  0  0 
 17 19  1  0  0  0  0 
 18 20  1  0  0  0  0 
 18 21  1  0  0  0  0 
 18 42  1  0  0  0  0 
 18 43  1  0  0  0  0 
 19 23  2  0  0  0  0 
 19 25  1  0  0  0  0 
 20 44  1  0  0  0  0 
 20 45  1  0  0  0  0 
 21 30  1  0  0  0  0 
 21 46  1  0  0  0  0 
 21 47  1  0  0  0  0 
 22 24  2  0  0  0  0 
 22 28  1  0  0  0  0 
 23 24  1  0  0  0  0 
 23 48  1  0  0  0  0 
 25 28  2  0  0  0  0 
 25 49  1  0  0  0  0 
 26 31  1  0  0  0  0 
 26 52  1  0  0  0  0 
 27 32  2  0  0  0  0 
 27 53  1  0  0  0  0 
 28 54  1  0  0  0  0 
 30 55  1  0  0  0  0 
 30 56  1  0  0  0  0 
 30 57  1  0  0  0  0 
 31 33  2  0  0  0  0 
 31 58  1  0  0  0  0 
 32 33  1  0  0  0  0 
 32 59  1  0  0  0  0 
 34 60  1  0  0  0  0 
 34 61  1  0  0  0  0 
 34 62  1  0  0  0  0 
M  END
> <cdk:Title>
39022188

> <cdk:Remark>
null

> <PUBCHEM_COMPOUND_CID>
39022188

> <PUBCHEM_COMPOUND_CANONICALIZED>
1

> <PUBCHEM_CACTVS_COMPLEXITY>
681

> <PUBCHEM_CACTVS_HBOND_ACCEPTOR>
7

> <PUBCHEM_CACTVS_HBOND_DONOR>
2

> <PUBCHEM_CACTVS_ROTATABLE_BOND>
11

> <PUBCHEM_CACTVS_SUBSKEYS>
AAADceB7sQAAAAAAAAAAAAAAAAAAAWAAAAAwYAAAAAAAAAAB0AAAHwAYAAAADAzhng4z9pLIBAC6BydydACyDCMlIgAcmKE+7NiNpnLE9duGvSr03hPK6a+63BLOIAABAAAAQABAAAIAAACAAAAAAAAAAA==

> <PUBCHEM_IUPAC_OPENEYE_NAME>
N-[3-[5-amino-4-cyano-1-(4-fluorophenyl)pyrazol-3-yl]propyl]-4-butoxy-3-methoxy-benzamide

> <PUBCHEM_IUPAC_CAS_NAME>
N-[3-[5-amino-4-cyano-1-(4-fluorophenyl)-3-pyrazolyl]propyl]-4-butoxy-3-methoxybenzamide

> <PUBCHEM_IUPAC_NAME>
N-[3-[5-amino-4-cyano-1-(4-fluorophenyl)pyrazol-3-yl]propyl]-4-butoxy-3-methoxybenzamide

> <PUBCHEM_IUPAC_SYSTEMATIC_NAME>
N-[3-[5-azanyl-4-cyano-1-(4-fluorophenyl)pyrazol-3-yl]propyl]-4-butoxy-3-methoxy-benzamide

> <PUBCHEM_IUPAC_TRADITIONAL_NAME>
N-[3-[5-amino-4-cyano-1-(4-fluorophenyl)pyrazol-3-yl]propyl]-4-butoxy-3-methoxy-benzamide

> <PUBCHEM_IUPAC_INCHI>
InChI=1S/C25H28FN5O3/c1-3-4-14-34-22-12-7-17(15-23(22)33-2)25(32)29-13-5-6-21-20(16-27)24(28)31(30-21)19-10-8-18(26)9-11-19/h7-12,15H,3-6,13-14,28H2,1-2H3,(H,29,32)

> <PUBCHEM_IUPAC_INCHIKEY>
TZUUNNGXMFFPJM-UHFFFAOYSA-N

> <PUBCHEM_XLOGP3_AA>
4.7

> <PUBCHEM_EXACT_MASS>
465.217618

> <PUBCHEM_MOLECULAR_FORMULA>
C25H28FN5O3

> <PUBCHEM_MOLECULAR_WEIGHT>
465.519923

> <PUBCHEM_OPENEYE_CAN_SMILES>
CCCCOC1=C(C=C(C=C1)C(=O)NCCCC2=NN(C(=C2C#N)N)C3=CC=C(C=C3)F)OC

> <PUBCHEM_OPENEYE_ISO_SMILES>
CCCCOC1=C(C=C(C=C1)C(=O)NCCCC2=NN(C(=C2C#N)N)C3=CC=C(C=C3)F)OC

> <PUBCHEM_CACTVS_TPSA>
115

> <PUBCHEM_MONOISOTOPIC_WEIGHT>
465.217618

> <PUBCHEM_TOTAL_CHARGE>
0

> <PUBCHEM_HEAVY_ATOM_COUNT>
34

> <PUBCHEM_ATOM_DEF_STEREO_COUNT>
0

> <PUBCHEM_ATOM_UDEF_STEREO_COUNT>
0

> <PUBCHEM_BOND_DEF_STEREO_COUNT>
0

> <PUBCHEM_BOND_UDEF_STEREO_COUNT>
0

> <PUBCHEM_ISOTOPIC_ATOM_COUNT>
0

> <PUBCHEM_COMPONENT_COUNT>
1

> <PUBCHEM_CACTVS_TAUTO_COUNT>
6

> <PUBCHEM_COORDINATE_TYPE>
1

> <PUBCHEM_BONDANNOTATIONS>
12  14  8

$$$$
