34637812
  CDK     0101151218

 38 40  0  0  0  0  0  0  0  0999 V2000
    8.9757    0.2853    0.0000 S   0  0  0  0  0  0  0  0  0  0  0  0
    2.0000   -0.8080    0.0000 F   0  0  0  0  0  0  0  0  0  0  0  0
    2.8660   -2.3080    0.0000 F   0  0  0  0  0  0  0  0  0  0  0  0
    9.5516    2.8080    0.0000 O   0  0  0  0  0  0  0  0  0  0  0  0
    3.7320   -0.8080    0.0000 O   0  0  0  0  0  0  0  0  0  0  0  0
    8.1667    1.6865    0.0000 N   0  0  0  0  0  0  0  0  0  0  0  0
    7.1962    0.1920    0.0000 N   0  0  0  0  0  0  0  0  0  0  0  0
    6.3301    0.6920    0.0000 N   0  0  0  0  0  0  0  0  0  0  0  0
    9.6448    1.0284    0.0000 C   0  0  2  0  0  0  0  0  0  0  0  0
   10.6394    0.9239    0.0000 C   0  0  0  0  0  0  0  0  0  0  0  0
    9.1448    1.8944    0.0000 C   0  0  0  0  0  0  0  0  0  0  0  0
   11.0461    0.0103    0.0000 C   0  0  0  0  0  0  0  0  0  0  0  0
   11.2272    1.7329    0.0000 C   0  0  0  0  0  0  0  0  0  0  0  0
    8.0622    0.6920    0.0000 C   0  0  0  0  0  0  0  0  0  0  0  0
   12.0406   -0.0942    0.0000 C   0  0  0  0  0  0  0  0  0  0  0  0
   12.2217    1.6284    0.0000 C   0  0  0  0  0  0  0  0  0  0  0  0
   12.6284    0.7148    0.0000 C   0  0  0  0  0  0  0  0  0  0  0  0
    5.4641   -0.8080    0.0000 C   0  0  0  0  0  0  0  0  0  0  0  0
    4.5981   -1.3080    0.0000 C   0  0  0  0  0  0  0  0  0  0  0  0
    6.3301   -1.3080    0.0000 C   0  0  0  0  0  0  0  0  0  0  0  0
    5.4641    0.1920    0.0000 C   0  0  0  0  0  0  0  0  0  0  0  0
    4.5981   -2.3080    0.0000 C   0  0  0  0  0  0  0  0  0  0  0  0
    6.3301   -2.3080    0.0000 C   0  0  0  0  0  0  0  0  0  0  0  0
    5.4641   -2.8080    0.0000 C   0  0  0  0  0  0  0  0  0  0  0  0
    2.8660   -1.3080    0.0000 C   0  0  0  0  0  0  0  0  0  0  0  0
    9.9825    1.5484    0.0000 H   0  0  0  0  0  0  0  0  0  0  0  0
   10.6817   -0.4912    0.0000 H   0  0  0  0  0  0  0  0  0  0  0  0
   10.9750    2.2993    0.0000 H   0  0  0  0  0  0  0  0  0  0  0  0
   12.2928   -0.6606    0.0000 H   0  0  0  0  0  0  0  0  0  0  0  0
   12.5861    2.1300    0.0000 H   0  0  0  0  0  0  0  0  0  0  0  0
   13.2450    0.6500    0.0000 H   0  0  0  0  0  0  0  0  0  0  0  0
    7.1962   -0.4280    0.0000 H   0  0  0  0  0  0  0  0  0  0  0  0
    6.8671   -0.9980    0.0000 H   0  0  0  0  0  0  0  0  0  0  0  0
    4.9272    0.5020    0.0000 H   0  0  0  0  0  0  0  0  0  0  0  0
    4.0611   -2.6180    0.0000 H   0  0  0  0  0  0  0  0  0  0  0  0
    6.8671   -2.6180    0.0000 H   0  0  0  0  0  0  0  0  0  0  0  0
    5.4641   -3.4280    0.0000 H   0  0  0  0  0  0  0  0  0  0  0  0
    2.8660   -0.6880    0.0000 H   0  0  0  0  0  0  0  0  0  0  0  0
  1  9  1  0  0  0  0 
  1 14  1  0  0  0  0 
  2 25  1  0  0  0  0 
  3 25  1  0  0  0  0 
  4 11  2  0  0  0  0 
  5 19  1  0  0  0  0 
  5 25  1  0  0  0  0 
  6 11  1  0  0  0  0 
  6 14  2  0  0  0  0 
  7  8  1  0  0  0  0 
  7 14  1  0  0  0  0 
  7 32  1  0  0  0  0 
  8 21  2  0  0  0  0 
  9 10  1  1  0  0  0 
  9 11  1  0  0  0  0 
  9 26  1  0  0  0  0 
 10 12  2  0  0  0  0 
 10 13  1  0  0  0  0 
 12 15  1  0  0  0  0 
 12 27  1  0  0  0  0 
 13 16  2  0  0  0  0 
 13 28  1  0  0  0  0 
 15 17  2  0  0  0  0 
 15 29  1  0  0  0  0 
 16 17  1  0  0  0  0 
 16 30  1  0  0  0  0 
 17 31  1  0  0  0  0 
 18 19  1  0  0  0  0 
 18 20  2  0  0  0  0 
 18 21  1  0  0  0  0 
 19 22  2  0  0  0  0 
 20 23  1  0  0  0  0 
 20 33  1  0  0  0  0 
 21 34  1  0  0  0  0 
 22 24  1  0  0  0  0 
 22 35  1  0  0  0  0 
 23 24  2  0  0  0  0 
 23 36  1  0  0  0  0 
 24 37  1  0  0  0  0 
 25 38  1  0  0  0  0 
M  END
> <cdk:Title>
34637812

> <cdk:Remark>
null

> <PUBCHEM_COMPOUND_CID>
34637812

> <PUBCHEM_COMPOUND_CANONICALIZED>
1

> <PUBCHEM_CACTVS_COMPLEXITY>
524

> <PUBCHEM_CACTVS_HBOND_ACCEPTOR>
6

> <PUBCHEM_CACTVS_HBOND_DONOR>
1

> <PUBCHEM_CACTVS_ROTATABLE_BOND>
6

> <PUBCHEM_CACTVS_SUBSKEYS>
AAADccB7MYBAAAAAAAAAAAAAAAAAAQAAAAAwYAAAAAAAAAABQAAAHwQYAAAADATF2BaxBoJiBAioAjFzNAASGAFgIBAIiAEmCJgMJrKktRuAMCAkyBEIqAeYyKCOAAAAAAAIAAAAAAAAABAAAAAAAAAAAA==

> <PUBCHEM_IUPAC_OPENEYE_NAME>
(5R)-2-[(2Z)-2-[[2-(difluoromethoxy)phenyl]methylene]hydrazino]-5-phenyl-thiazol-4-one

> <PUBCHEM_IUPAC_CAS_NAME>
(5R)-2-[(2Z)-2-[[2-(difluoromethoxy)phenyl]methylidene]hydrazinyl]-5-phenyl-4-thiazolone

> <PUBCHEM_IUPAC_NAME>
(5R)-2-[(2Z)-2-[[2-(difluoromethoxy)phenyl]methylidene]hydrazinyl]-5-phenyl-1,3-thiazol-4-one

> <PUBCHEM_IUPAC_SYSTEMATIC_NAME>
(5R)-2-[(2Z)-2-[[2-[bis(fluoranyl)methoxy]phenyl]methylidene]hydrazinyl]-5-phenyl-1,3-thiazol-4-one

> <PUBCHEM_IUPAC_TRADITIONAL_NAME>
(5R)-2-[(N'Z)-N'-[2-(difluoromethoxy)benzylidene]hydrazino]-5-phenyl-2-thiazolin-4-one

> <PUBCHEM_IUPAC_INCHI>
InChI=1S/C17H13F2N3O2S/c18-16(19)24-13-9-5-4-8-12(13)10-20-22-17-21-15(23)14(25-17)11-6-2-1-3-7-11/h1-10,14,16H,(H,21,22,23)/b20-10-/t14-/m1/s1

> <PUBCHEM_IUPAC_INCHIKEY>
SEPFCYQCUTYXJG-IPZKOZABSA-N

> <PUBCHEM_XLOGP3_AA>
4.4

> <PUBCHEM_EXACT_MASS>
361.069654

> <PUBCHEM_MOLECULAR_FORMULA>
C17H13F2N3O2S

> <PUBCHEM_MOLECULAR_WEIGHT>
361.365826

> <PUBCHEM_OPENEYE_CAN_SMILES>
C1=CC=C(C=C1)C2C(=O)N=C(S2)NN=CC3=CC=CC=C3OC(F)F

> <PUBCHEM_OPENEYE_ISO_SMILES>
C1=CC=C(C=C1)[C@@H]2C(=O)N=C(S2)N/N=C\C3=CC=CC=C3OC(F)F

> <PUBCHEM_CACTVS_TPSA>
88.4

> <PUBCHEM_MONOISOTOPIC_WEIGHT>
361.069654

> <PUBCHEM_TOTAL_CHARGE>
0

> <PUBCHEM_HEAVY_ATOM_COUNT>
25

> <PUBCHEM_ATOM_DEF_STEREO_COUNT>
1

> <PUBCHEM_ATOM_UDEF_STEREO_COUNT>
0

> <PUBCHEM_BOND_DEF_STEREO_COUNT>
1

> <PUBCHEM_BOND_UDEF_STEREO_COUNT>
0

> <PUBCHEM_ISOTOPIC_ATOM_COUNT>
0

> <PUBCHEM_COMPONENT_COUNT>
1

> <PUBCHEM_CACTVS_TAUTO_COUNT>
5

> <PUBCHEM_COORDINATE_TYPE>
1

> <PUBCHEM_BONDANNOTATIONS>
10  12  8

$$$$
