36089241
  CDK     0104150955

 49 51  0  0  0  0  0  0  0  0999 V2000
    3.7321    5.1830    0.0000 Br  0  0  0  0  0  0  0  0  0  0  0  0
    2.0000   -2.8170    0.0000 O   0  0  0  0  0  0  0  0  0  0  0  0
    7.1962    3.1830    0.0000 O   0  0  0  0  0  0  0  0  0  0  0  0
    3.7321   -2.8170    0.0000 N   0  0  0  0  0  0  0  0  0  0  0  0
    4.5981    1.6830    0.0000 N   0  0  0  0  0  0  0  0  0  0  0  0
    2.8660   -4.3170    0.0000 C   0  0  0  0  0  0  0  0  0  0  0  0
    2.3660   -5.1830    0.0000 C   0  0  0  0  0  0  0  0  0  0  0  0
    3.3660   -5.1830    0.0000 C   0  0  0  0  0  0  0  0  0  0  0  0
    2.8660   -3.3170    0.0000 C   0  0  0  0  0  0  0  0  0  0  0  0
    3.7321    1.1830    0.0000 C   0  0  2  0  0  0  0  0  0  0  0  0
    3.7321    0.1830    0.0000 C   0  0  0  0  0  0  0  0  0  0  0  0
    3.7321   -1.8170    0.0000 C   0  0  0  0  0  0  0  0  0  0  0  0
    5.4641    2.1830    0.0000 C   0  0  0  0  0  0  0  0  0  0  0  0
    2.8660    1.6830    0.0000 C   0  0  0  0  0  0  0  0  0  0  0  0
    4.5981   -0.3170    0.0000 C   0  0  0  0  0  0  0  0  0  0  0  0
    2.8660   -0.3170    0.0000 C   0  0  0  0  0  0  0  0  0  0  0  0
    4.5981   -1.3170    0.0000 C   0  0  0  0  0  0  0  0  0  0  0  0
    2.8660   -1.3170    0.0000 C   0  0  0  0  0  0  0  0  0  0  0  0
    5.4641    3.1830    0.0000 C   0  0  0  0  0  0  0  0  0  0  0  0
    6.3301    3.6830    0.0000 C   0  0  0  0  0  0  0  0  0  0  0  0
    4.5981    3.6830    0.0000 C   0  0  0  0  0  0  0  0  0  0  0  0
    6.3301    4.6830    0.0000 C   0  0  0  0  0  0  0  0  0  0  0  0
    4.5981    4.6830    0.0000 C   0  0  0  0  0  0  0  0  0  0  0  0
    5.4641    5.1830    0.0000 C   0  0  0  0  0  0  0  0  0  0  0  0
    8.0622    3.6830    0.0000 C   0  0  0  0  0  0  0  0  0  0  0  0
    3.4649   -4.1565    0.0000 H   0  0  0  0  0  0  0  0  0  0  0  0
    1.7834   -4.9710    0.0000 H   0  0  0  0  0  0  0  0  0  0  0  0
    2.2584   -5.7936    0.0000 H   0  0  0  0  0  0  0  0  0  0  0  0
    3.4737   -5.7936    0.0000 H   0  0  0  0  0  0  0  0  0  0  0  0
    3.9486   -4.9710    0.0000 H   0  0  0  0  0  0  0  0  0  0  0  0
    4.2690   -3.1270    0.0000 H   0  0  0  0  0  0  0  0  0  0  0  0
    3.7321    1.8030    0.0000 H   0  0  0  0  0  0  0  0  0  0  0  0
    4.2881    2.2200    0.0000 H   0  0  0  0  0  0  0  0  0  0  0  0
    4.9081    1.1461    0.0000 H   0  0  0  0  0  0  0  0  0  0  0  0
    5.6762    1.6004    0.0000 H   0  0  0  0  0  0  0  0  0  0  0  0
    6.0747    2.2907    0.0000 H   0  0  0  0  0  0  0  0  0  0  0  0
    3.1760    2.2200    0.0000 H   0  0  0  0  0  0  0  0  0  0  0  0
    2.3291    1.9930    0.0000 H   0  0  0  0  0  0  0  0  0  0  0  0
    2.5560    1.1461    0.0000 H   0  0  0  0  0  0  0  0  0  0  0  0
    5.1350   -0.0070    0.0000 H   0  0  0  0  0  0  0  0  0  0  0  0
    2.3291   -0.0070    0.0000 H   0  0  0  0  0  0  0  0  0  0  0  0
    5.1350   -1.6270    0.0000 H   0  0  0  0  0  0  0  0  0  0  0  0
    2.3291   -1.6270    0.0000 H   0  0  0  0  0  0  0  0  0  0  0  0
    4.0611    3.3730    0.0000 H   0  0  0  0  0  0  0  0  0  0  0  0
    6.8671    4.9930    0.0000 H   0  0  0  0  0  0  0  0  0  0  0  0
    5.4641    5.8030    0.0000 H   0  0  0  0  0  0  0  0  0  0  0  0
    8.3722    3.1461    0.0000 H   0  0  0  0  0  0  0  0  0  0  0  0
    8.5991    3.9930    0.0000 H   0  0  0  0  0  0  0  0  0  0  0  0
    7.7522    4.2200    0.0000 H   0  0  0  0  0  0  0  0  0  0  0  0
  1 23  1  0  0  0  0 
  2  9  2  0  0  0  0 
  3 20  1  0  0  0  0 
  3 25  1  0  0  0  0 
  4  9  1  0  0  0  0 
  4 12  1  0  0  0  0 
  4 31  1  0  0  0  0 
 10  5  1  6  0  0  0 
  5 13  1  0  0  0  0 
  5 33  1  0  0  0  0 
  5 34  1  0  0  0  0 
  6  7  1  0  0  0  0 
  6  8  1  0  0  0  0 
  6  9  1  0  0  0  0 
  6 26  1  0  0  0  0 
  7  8  1  0  0  0  0 
  7 27  1  0  0  0  0 
  7 28  1  0  0  0  0 
  8 29  1  0  0  0  0 
  8 30  1  0  0  0  0 
 10 11  1  0  0  0  0 
 10 14  1  0  0  0  0 
 10 32  1  0  0  0  0 
 11 15  2  0  0  0  0 
 11 16  1  0  0  0  0 
 12 17  2  0  0  0  0 
 12 18  1  0  0  0  0 
 13 19  1  0  0  0  0 
 13 35  1  0  0  0  0 
 13 36  1  0  0  0  0 
 14 37  1  0  0  0  0 
 14 38  1  0  0  0  0 
 14 39  1  0  0  0  0 
 15 17  1  0  0  0  0 
 15 40  1  0  0  0  0 
 16 18  2  0  0  0  0 
 16 41  1  0  0  0  0 
 17 42  1  0  0  0  0 
 18 43  1  0  0  0  0 
 19 20  2  0  0  0  0 
 19 21  1  0  0  0  0 
 20 22  1  0  0  0  0 
 21 23  2  0  0  0  0 
 21 44  1  0  0  0  0 
 22 24  2  0  0  0  0 
 22 45  1  0  0  0  0 
 23 24  1  0  0  0  0 
 24 46  1  0  0  0  0 
 25 47  1  0  0  0  0 
 25 48  1  0  0  0  0 
 25 49  1  0  0  0  0 
M  CHG  1   5   1
M  END
> <cdk:Title>
36089241

> <cdk:Remark>
null

> <PUBCHEM_COMPOUND_CID>
36089241

> <PUBCHEM_COMPOUND_CANONICALIZED>
1

> <PUBCHEM_CACTVS_COMPLEXITY>
435

> <PUBCHEM_CACTVS_HBOND_ACCEPTOR>
2

> <PUBCHEM_CACTVS_HBOND_DONOR>
2

> <PUBCHEM_CACTVS_ROTATABLE_BOND>
7

> <PUBCHEM_CACTVS_SUBSKEYS>
AAADceB7MAAAEAAAAAAAAAAAGAAAAAAAAAAwYAAAAAAAAAABQAAAHgBQAAABrSzBmAYyxoLABACIAiVSUACCCAAhIgQIiIEObKgMJjLEsZuEMChm1BHI6heQwKAOCBAAEAAIAAAQIAAgABAAAAAAAAAAAA==

> <PUBCHEM_IUPAC_OPENEYE_NAME>
(5-bromo-2-methoxy-phenyl)methyl-[(1S)-1-[4-(cyclopropanecarbonylamino)phenyl]ethyl]ammonium

> <PUBCHEM_IUPAC_CAS_NAME>
(5-bromo-2-methoxyphenyl)methyl-[(1S)-1-[4-[[cyclopropyl(oxo)methyl]amino]phenyl]ethyl]ammonium

> <PUBCHEM_IUPAC_NAME>
(5-bromo-2-methoxyphenyl)methyl-[(1S)-1-[4-(cyclopropanecarbonylamino)phenyl]ethyl]azanium

> <PUBCHEM_IUPAC_SYSTEMATIC_NAME>
(5-bromanyl-2-methoxy-phenyl)methyl-[(1S)-1-[4-(cyclopropylcarbonylamino)phenyl]ethyl]azanium

> <PUBCHEM_IUPAC_TRADITIONAL_NAME>
(5-bromo-2-methoxy-benzyl)-[(1S)-1-[4-(cyclopropanecarbonylamino)phenyl]ethyl]ammonium

> <PUBCHEM_IUPAC_INCHI>
InChI=1S/C20H23BrN2O2/c1-13(22-12-16-11-17(21)7-10-19(16)25-2)14-5-8-18(9-6-14)23-20(24)15-3-4-15/h5-11,13,15,22H,3-4,12H2,1-2H3,(H,23,24)/p+1/t13-/m0/s1

> <PUBCHEM_IUPAC_INCHIKEY>
VEWRIBHYTRHXAB-ZDUSSCGKSA-O

> <PUBCHEM_XLOGP3_AA>
3.5

> <PUBCHEM_EXACT_MASS>
403.102115

> <PUBCHEM_MOLECULAR_FORMULA>
C20H24BrN2O2+

> <PUBCHEM_MOLECULAR_WEIGHT>
404.32076

> <PUBCHEM_OPENEYE_CAN_SMILES>
CC(C1=CC=C(C=C1)NC(=O)C2CC2)[NH2+]CC3=C(C=CC(=C3)Br)OC

> <PUBCHEM_OPENEYE_ISO_SMILES>
C[C@@H](C1=CC=C(C=C1)NC(=O)C2CC2)[NH2+]CC3=C(C=CC(=C3)Br)OC

> <PUBCHEM_CACTVS_TPSA>
54.9

> <PUBCHEM_MONOISOTOPIC_WEIGHT>
403.102115

> <PUBCHEM_TOTAL_CHARGE>
1

> <PUBCHEM_HEAVY_ATOM_COUNT>
25

> <PUBCHEM_ATOM_DEF_STEREO_COUNT>
1

> <PUBCHEM_ATOM_UDEF_STEREO_COUNT>
0

> <PUBCHEM_BOND_DEF_STEREO_COUNT>
0

> <PUBCHEM_BOND_UDEF_STEREO_COUNT>
0

> <PUBCHEM_ISOTOPIC_ATOM_COUNT>
0

> <PUBCHEM_COMPONENT_COUNT>
1

> <PUBCHEM_CACTVS_TAUTO_COUNT>
2

> <PUBCHEM_COORDINATE_TYPE>
1

> <PUBCHEM_BONDANNOTATIONS>
11  15  8

$$$$
