60811138
  CDK     0101151218

 34 35  0  0  0  0  0  0  0  0999 V2000
    4.0778    0.7076    0.0000 O   0  0  0  0  0  0  0  0  0  0  0  0
    3.2688   -3.8802    0.0000 N   0  0  0  0  0  0  0  0  0  0  0  0
    2.4598    0.7076    0.0000 N   0  0  0  0  0  0  0  0  0  0  0  0
    3.7688    1.6586    0.0000 N   0  0  0  0  0  0  0  0  0  0  0  0
    3.2688   -0.8802    0.0000 C   0  0  0  0  0  0  0  0  0  0  0  0
    3.2688   -2.8802    0.0000 C   0  0  0  0  0  0  0  0  0  0  0  0
    4.1349   -1.3802    0.0000 C   0  0  0  0  0  0  0  0  0  0  0  0
    2.4028   -1.3802    0.0000 C   0  0  0  0  0  0  0  0  0  0  0  0
    4.1349   -2.3802    0.0000 C   0  0  0  0  0  0  0  0  0  0  0  0
    2.4028   -2.3802    0.0000 C   0  0  0  0  0  0  0  0  0  0  0  0
    3.2688    0.1198    0.0000 C   0  0  0  0  0  0  0  0  0  0  0  0
    2.7688    1.6586    0.0000 C   0  0  0  0  0  0  0  0  0  0  0  0
    2.1810    2.4676    0.0000 C   0  0  0  0  0  0  0  0  0  0  0  0
    2.5878    3.3812    0.0000 C   0  0  0  0  0  0  0  0  0  0  0  0
    2.0000    4.1902    0.0000 C   0  0  0  0  0  0  0  0  0  0  0  0
    3.8058   -0.5702    0.0000 H   0  0  0  0  0  0  0  0  0  0  0  0
    3.8058   -3.1902    0.0000 H   0  0  0  0  0  0  0  0  0  0  0  0
    2.1908   -0.7976    0.0000 H   0  0  0  0  0  0  0  0  0  0  0  0
    1.7922   -1.4879    0.0000 H   0  0  0  0  0  0  0  0  0  0  0  0
    4.7454   -1.4879    0.0000 H   0  0  0  0  0  0  0  0  0  0  0  0
    4.3469   -0.7976    0.0000 H   0  0  0  0  0  0  0  0  0  0  0  0
    4.3469   -2.9628    0.0000 H   0  0  0  0  0  0  0  0  0  0  0  0
    1.7922   -2.2726    0.0000 H   0  0  0  0  0  0  0  0  0  0  0  0
    2.1908   -2.9628    0.0000 H   0  0  0  0  0  0  0  0  0  0  0  0
    4.7454   -2.2726    0.0000 H   0  0  0  0  0  0  0  0  0  0  0  0
    3.8058   -4.1902    0.0000 H   0  0  0  0  0  0  0  0  0  0  0  0
    2.7319   -4.1902    0.0000 H   0  0  0  0  0  0  0  0  0  0  0  0
    1.6670    2.8144    0.0000 H   0  0  0  0  0  0  0  0  0  0  0  0
    1.7504    2.0217    0.0000 H   0  0  0  0  0  0  0  0  0  0  0  0
    3.1018    3.0345    0.0000 H   0  0  0  0  0  0  0  0  0  0  0  0
    3.0185    3.8272    0.0000 H   0  0  0  0  0  0  0  0  0  0  0  0
    2.5016    4.5546    0.0000 H   0  0  0  0  0  0  0  0  0  0  0  0
    1.6356    4.6918    0.0000 H   0  0  0  0  0  0  0  0  0  0  0  0
    1.4984    3.8258    0.0000 H   0  0  0  0  0  0  0  0  0  0  0  0
  1  4  1  0  0  0  0 
  1 11  1  0  0  0  0 
  2  6  1  0  0  0  0 
  2 26  1  0  0  0  0 
  2 27  1  0  0  0  0 
  3 11  2  0  0  0  0 
  3 12  1  0  0  0  0 
  4 12  2  0  0  0  0 
  5  7  1  0  0  0  0 
  5  8  1  0  0  0  0 
  5 11  1  0  0  0  0 
  5 16  1  0  0  0  0 
  6  9  1  0  0  0  0 
  6 10  1  0  0  0  0 
  6 17  1  0  0  0  0 
  7  9  1  0  0  0  0 
  7 20  1  0  0  0  0 
  7 21  1  0  0  0  0 
  8 10  1  0  0  0  0 
  8 18  1  0  0  0  0 
  8 19  1  0  0  0  0 
  9 22  1  0  0  0  0 
  9 25  1  0  0  0  0 
 10 23  1  0  0  0  0 
 10 24  1  0  0  0  0 
 12 13  1  0  0  0  0 
 13 14  1  0  0  0  0 
 13 28  1  0  0  0  0 
 13 29  1  0  0  0  0 
 14 15  1  0  0  0  0 
 14 30  1  0  0  0  0 
 14 31  1  0  0  0  0 
 15 32  1  0  0  0  0 
 15 33  1  0  0  0  0 
 15 34  1  0  0  0  0 
M  END
> <cdk:Title>
60811138

> <cdk:Remark>
null

> <PUBCHEM_COMPOUND_CID>
60811138

> <PUBCHEM_COMPOUND_CANONICALIZED>
1

> <PUBCHEM_CACTVS_COMPLEXITY>
192

> <PUBCHEM_CACTVS_HBOND_ACCEPTOR>
4

> <PUBCHEM_CACTVS_HBOND_DONOR>
1

> <PUBCHEM_CACTVS_ROTATABLE_BOND>
3

> <PUBCHEM_CACTVS_SUBSKEYS>
AAADceBzIAAAAAAAAAAAAAAAAAAAAWAAAAAwAAAAAAAAAAABgAAAHgAUAAAADSjBgwQDEAZYEAApAAMwNgAAgAkAAKAhAIEwAACACBIAiAAEAAAEFQKAAAGY2SGeAAAAAAAAAAAQAAAAAAAAAAAAAAAAAA==

> <PUBCHEM_IUPAC_OPENEYE_NAME>
4-(3-propyl-1,2,4-oxadiazol-5-yl)cyclohexanamine

> <PUBCHEM_IUPAC_CAS_NAME>
4-(3-propyl-1,2,4-oxadiazol-5-yl)-1-cyclohexanamine

> <PUBCHEM_IUPAC_NAME>
4-(3-propyl-1,2,4-oxadiazol-5-yl)cyclohexan-1-amine

> <PUBCHEM_IUPAC_SYSTEMATIC_NAME>
4-(3-propyl-1,2,4-oxadiazol-5-yl)cyclohexan-1-amine

> <PUBCHEM_IUPAC_TRADITIONAL_NAME>
[4-(3-propyl-1,2,4-oxadiazol-5-yl)cyclohexyl]amine

> <PUBCHEM_IUPAC_INCHI>
InChI=1S/C11H19N3O/c1-2-3-10-13-11(15-14-10)8-4-6-9(12)7-5-8/h8-9H,2-7,12H2,1H3

> <PUBCHEM_IUPAC_INCHIKEY>
OFDCLORBTAATGY-UHFFFAOYSA-N

> <PUBCHEM_XLOGP3_AA>
1.7

> <PUBCHEM_EXACT_MASS>
209.152812

> <PUBCHEM_MOLECULAR_FORMULA>
C11H19N3O

> <PUBCHEM_MOLECULAR_WEIGHT>
209.28806

> <PUBCHEM_OPENEYE_CAN_SMILES>
CCCC1=NOC(=N1)C2CCC(CC2)N

> <PUBCHEM_OPENEYE_ISO_SMILES>
CCCC1=NOC(=N1)C2CCC(CC2)N

> <PUBCHEM_CACTVS_TPSA>
64.9

> <PUBCHEM_MONOISOTOPIC_WEIGHT>
209.152812

> <PUBCHEM_TOTAL_CHARGE>
0

> <PUBCHEM_HEAVY_ATOM_COUNT>
15

> <PUBCHEM_ATOM_DEF_STEREO_COUNT>
0

> <PUBCHEM_ATOM_UDEF_STEREO_COUNT>
0

> <PUBCHEM_BOND_DEF_STEREO_COUNT>
0

> <PUBCHEM_BOND_UDEF_STEREO_COUNT>
0

> <PUBCHEM_ISOTOPIC_ATOM_COUNT>
0

> <PUBCHEM_COMPONENT_COUNT>
1

> <PUBCHEM_CACTVS_TAUTO_COUNT>
1

> <PUBCHEM_COORDINATE_TYPE>
1

> <PUBCHEM_BONDANNOTATIONS>
1  11  8

$$$$
