23379805
  CDK     0202151413

 52 52  0  0  0  0  0  0  0  0999 V2000
    4.7540   -2.0194    0.0000 O   0  0  0  0  0  0  0  0  0  0  0  0
    8.2461    2.2594    0.0000 O   0  0  0  0  0  0  0  0  0  0  0  0
    6.4860   -2.0194    0.0000 O   0  0  0  0  0  0  0  0  0  0  0  0
    2.6200    1.2126    0.0000 O   0  0  0  0  0  0  0  0  0  0  0  0
    2.6200   -0.5194    0.0000 O   0  0  0  0  0  0  0  0  0  0  0  0
    6.4860    1.9806    0.0000 N   0  0  0  0  0  0  0  0  0  0  0  0
    5.6200   -0.5194    0.0000 C   0  0  3  0  0  0  0  0  0  0  0  0
    6.4860    0.9806    0.0000 C   0  0  3  0  0  0  0  0  0  0  0  0
    5.6200    0.4806    0.0000 C   0  0  0  0  0  0  0  0  0  0  0  0
    4.6200   -0.5194    0.0000 C   0  0  0  0  0  0  0  0  0  0  0  0
    7.3520    0.4806    0.0000 C   0  0  0  0  0  0  0  0  0  0  0  0
    5.6770    2.5684    0.0000 C   0  0  0  0  0  0  0  0  0  0  0  0
    6.6200   -0.5194    0.0000 C   0  0  0  0  0  0  0  0  0  0  0  0
    5.9860    3.5194    0.0000 C   0  0  0  0  0  0  0  0  0  0  0  0
    4.1200    0.3466    0.0000 C   0  0  3  0  0  0  0  0  0  0  0  0
    7.2950    2.5684    0.0000 C   0  0  0  0  0  0  0  0  0  0  0  0
    6.9860    3.5194    0.0000 C   0  0  0  0  0  0  0  0  0  0  0  0
    5.6200   -1.5194    0.0000 C   0  0  0  0  0  0  0  0  0  0  0  0
    7.3520   -0.5194    0.0000 C   0  0  0  0  0  0  0  0  0  0  0  0
    4.6200    1.2126    0.0000 C   0  0  0  0  0  0  0  0  0  0  0  0
    3.1200    0.3466    0.0000 C   0  0  0  0  0  0  0  0  0  0  0  0
    4.7540   -3.0194    0.0000 C   0  0  0  0  0  0  0  0  0  0  0  0
    3.8880   -3.5194    0.0000 C   0  0  0  0  0  0  0  0  0  0  0  0
    7.0230    1.2906    0.0000 H   0  0  0  0  0  0  0  0  0  0  0  0
    5.4079    1.0632    0.0000 H   0  0  0  0  0  0  0  0  0  0  0  0
    5.0094    0.3729    0.0000 H   0  0  0  0  0  0  0  0  0  0  0  0
    4.0374   -0.7315    0.0000 H   0  0  0  0  0  0  0  0  0  0  0  0
    4.7277   -1.1300    0.0000 H   0  0  0  0  0  0  0  0  0  0  0  0
    7.9626    0.3729    0.0000 H   0  0  0  0  0  0  0  0  0  0  0  0
    7.5641    1.0632    0.0000 H   0  0  0  0  0  0  0  0  0  0  0  0
    5.1106    2.8205    0.0000 H   0  0  0  0  0  0  0  0  0  0  0  0
    5.3670    2.0314    0.0000 H   0  0  0  0  0  0  0  0  0  0  0  0
    6.6200   -1.1394    0.0000 H   0  0  0  0  0  0  0  0  0  0  0  0
    7.2400   -0.5194    0.0000 H   0  0  0  0  0  0  0  0  0  0  0  0
    6.6200    0.1006    0.0000 H   0  0  0  0  0  0  0  0  0  0  0  0
    6.0508    4.1360    0.0000 H   0  0  0  0  0  0  0  0  0  0  0  0
    5.3796    3.6483    0.0000 H   0  0  0  0  0  0  0  0  0  0  0  0
    3.8100    0.8835    0.0000 H   0  0  0  0  0  0  0  0  0  0  0  0
    7.5925    3.6483    0.0000 H   0  0  0  0  0  0  0  0  0  0  0  0
    6.9212    4.1360    0.0000 H   0  0  0  0  0  0  0  0  0  0  0  0
    6.7320   -0.5194    0.0000 H   0  0  0  0  0  0  0  0  0  0  0  0
    7.3520   -1.1394    0.0000 H   0  0  0  0  0  0  0  0  0  0  0  0
    7.9720   -0.5194    0.0000 H   0  0  0  0  0  0  0  0  0  0  0  0
    5.1569    0.9026    0.0000 H   0  0  0  0  0  0  0  0  0  0  0  0
    4.9300    1.7496    0.0000 H   0  0  0  0  0  0  0  0  0  0  0  0
    4.0831    1.5226    0.0000 H   0  0  0  0  0  0  0  0  0  0  0  0
    4.9660   -3.6020    0.0000 H   0  0  0  0  0  0  0  0  0  0  0  0
    5.3646   -2.9118    0.0000 H   0  0  0  0  0  0  0  0  0  0  0  0
    2.0000    1.2126    0.0000 H   0  0  0  0  0  0  0  0  0  0  0  0
    3.5780   -2.9825    0.0000 H   0  0  0  0  0  0  0  0  0  0  0  0
    3.3510   -3.8294    0.0000 H   0  0  0  0  0  0  0  0  0  0  0  0
    4.1979   -4.0564    0.0000 H   0  0  0  0  0  0  0  0  0  0  0  0
  1 18  1  0  0  0  0 
  1 22  1  0  0  0  0 
  2 16  2  0  0  0  0 
  3 18  2  0  0  0  0 
  4 21  1  0  0  0  0 
  4 49  1  0  0  0  0 
  5 21  2  0  0  0  0 
  6  8  1  0  0  0  0 
  6 12  1  0  0  0  0 
  6 16  1  0  0  0  0 
  7  9  1  0  0  0  0 
  7 10  1  0  0  0  0 
  7 13  1  0  0  0  0 
  7 18  1  0  0  0  0 
  8  9  1  0  0  0  0 
  8 11  1  0  0  0  0 
  8 24  1  0  0  0  0 
  9 25  1  0  0  0  0 
  9 26  1  0  0  0  0 
 10 15  1  0  0  0  0 
 10 27  1  0  0  0  0 
 10 28  1  0  0  0  0 
 11 19  1  0  0  0  0 
 11 29  1  0  0  0  0 
 11 30  1  0  0  0  0 
 12 14  1  0  0  0  0 
 12 31  1  0  0  0  0 
 12 32  1  0  0  0  0 
 13 33  1  0  0  0  0 
 13 34  1  0  0  0  0 
 13 35  1  0  0  0  0 
 14 17  1  0  0  0  0 
 14 36  1  0  0  0  0 
 14 37  1  0  0  0  0 
 15 20  1  0  0  0  0 
 15 21  1  0  0  0  0 
 15 38  1  0  0  0  0 
 16 17  1  0  0  0  0 
 17 39  1  0  0  0  0 
 17 40  1  0  0  0  0 
 19 41  1  0  0  0  0 
 19 42  1  0  0  0  0 
 19 43  1  0  0  0  0 
 20 44  1  0  0  0  0 
 20 45  1  0  0  0  0 
 20 46  1  0  0  0  0 
 22 23  1  0  0  0  0 
 22 47  1  0  0  0  0 
 22 48  1  0  0  0  0 
 23 50  1  0  0  0  0 
 23 51  1  0  0  0  0 
 23 52  1  0  0  0  0 
M  END
> <cdk:Title>
23379805

> <cdk:Remark>
null

> <PUBCHEM_COMPOUND_CID>
23379805

> <PUBCHEM_COMPOUND_CANONICALIZED>
1

> <PUBCHEM_CACTVS_COMPLEXITY>
450

> <PUBCHEM_CACTVS_HBOND_ACCEPTOR>
5

> <PUBCHEM_CACTVS_HBOND_DONOR>
1

> <PUBCHEM_CACTVS_ROTATABLE_BOND>
10

> <PUBCHEM_CACTVS_SUBSKEYS>
AAADceB6OAAAAAAAAAAAAAAAAAAAAWAAAAAAAAAAAAAAAAAAAAAAHgAACAAADyjhgAYCCAMABgAIAAGQGAAAAAAAAAAAAAEIAAAAABIAgAAGQAAEBgCAAAG87uiPAAAAAAAAAAAAAAAAAAAAAAAAAAAAAA==

> <PUBCHEM_IUPAC_OPENEYE_NAME>
4-ethoxycarbonyl-2,4-dimethyl-6-(2-oxopyrrolidin-1-yl)octanoic acid

> <PUBCHEM_IUPAC_CAS_NAME>
4-ethoxycarbonyl-2,4-dimethyl-6-(2-oxo-1-pyrrolidinyl)octanoic acid

> <PUBCHEM_IUPAC_NAME>
4-ethoxycarbonyl-2,4-dimethyl-6-(2-oxopyrrolidin-1-yl)octanoic acid

> <PUBCHEM_IUPAC_SYSTEMATIC_NAME>
4-ethoxycarbonyl-2,4-dimethyl-6-(2-oxidanylidenepyrrolidin-1-yl)octanoic acid

> <PUBCHEM_IUPAC_TRADITIONAL_NAME>
4-carbethoxy-6-(2-ketopyrrolidino)-2,4-dimethyl-caprylic acid

> <PUBCHEM_IUPAC_INCHI>
InChI=1S/C17H29NO5/c1-5-13(18-9-7-8-14(18)19)11-17(4,16(22)23-6-2)10-12(3)15(20)21/h12-13H,5-11H2,1-4H3,(H,20,21)

> <PUBCHEM_IUPAC_INCHIKEY>
CVETTWWTEMSEJG-UHFFFAOYSA-N

> <PUBCHEM_XLOGP3_AA>
2.1

> <PUBCHEM_EXACT_MASS>
327.204573

> <PUBCHEM_MOLECULAR_FORMULA>
C17H29NO5

> <PUBCHEM_MOLECULAR_WEIGHT>
327.41586

> <PUBCHEM_OPENEYE_CAN_SMILES>
CCC(CC(C)(CC(C)C(=O)O)C(=O)OCC)N1CCCC1=O

> <PUBCHEM_OPENEYE_ISO_SMILES>
CCC(CC(C)(CC(C)C(=O)O)C(=O)OCC)N1CCCC1=O

> <PUBCHEM_CACTVS_TPSA>
83.9

> <PUBCHEM_MONOISOTOPIC_WEIGHT>
327.204573

> <PUBCHEM_TOTAL_CHARGE>
0

> <PUBCHEM_HEAVY_ATOM_COUNT>
23

> <PUBCHEM_ATOM_DEF_STEREO_COUNT>
0

> <PUBCHEM_ATOM_UDEF_STEREO_COUNT>
3

> <PUBCHEM_BOND_DEF_STEREO_COUNT>
0

> <PUBCHEM_BOND_UDEF_STEREO_COUNT>
0

> <PUBCHEM_ISOTOPIC_ATOM_COUNT>
0

> <PUBCHEM_COMPONENT_COUNT>
1

> <PUBCHEM_CACTVS_TAUTO_COUNT>
2

> <PUBCHEM_COORDINATE_TYPE>
1

> <PUBCHEM_BONDANNOTATIONS>
15  20  3

$$$$
