23100455
  CDK     0202151413

 43 44  0  0  0  0  0  0  0  0999 V2000
    9.4651    3.8100    0.0000 Br  0  0  0  0  0  0  0  0  0  0  0  0
    0.0000    1.0000    0.0000 Cl  0  0  0  0  0  0  0  0  0  0  0  0
    6.0622    5.5000    0.0000 Cl  0  0  0  0  0  0  0  0  0  0  0  0
    3.4641    4.0000    0.0000 S   0  0  0  0  0  0  0  0  0  0  0  0
    1.7320    0.0000    0.0000 F   0  0  0  0  0  0  0  0  0  0  0  0
    6.0622    7.5000    0.0000 F   0  0  0  0  0  0  0  0  0  0  0  0
    1.7320    4.0000    0.0000 N   0  0  0  0  0  0  0  0  0  0  0  0
    2.5981    5.5000    0.0000 N   0  0  0  0  0  0  0  0  0  0  0  0
    4.3301    4.5000    0.0000 C   0  0  0  0  0  0  0  0  0  0  0  0
    5.1962    4.0000    0.0000 C   0  0  0  0  0  0  0  0  0  0  0  0
    1.7320    3.0000    0.0000 C   0  0  0  0  0  0  0  0  0  0  0  0
    2.5981    4.5000    0.0000 C   0  0  0  0  0  0  0  0  0  0  0  0
    5.1962    3.0000    0.0000 C   0  0  0  0  0  0  0  0  0  0  0  0
    6.0622    4.5000    0.0000 C   0  0  0  0  0  0  0  0  0  0  0  0
    3.4641    6.0000    0.0000 C   0  0  0  0  0  0  0  0  0  0  0  0
    0.8660    2.5000    0.0000 C   0  0  0  0  0  0  0  0  0  0  0  0
    2.5981    2.5000    0.0000 C   0  0  0  0  0  0  0  0  0  0  0  0
    6.0622    2.5000    0.0000 C   0  0  0  0  0  0  0  0  0  0  0  0
    6.9282    4.0000    0.0000 C   0  0  0  0  0  0  0  0  0  0  0  0
    6.9282    3.0000    0.0000 C   0  0  0  0  0  0  0  0  0  0  0  0
    0.8660    1.5000    0.0000 C   0  0  0  0  0  0  0  0  0  0  0  0
    2.5981    1.5000    0.0000 C   0  0  0  0  0  0  0  0  0  0  0  0
    4.3301    5.5000    0.0000 C   0  0  0  0  0  0  0  0  0  0  0  0
    3.4641    7.0000    0.0000 C   0  0  0  0  0  0  0  0  0  0  0  0
    1.7320    1.0000    0.0000 C   0  0  0  0  0  0  0  0  0  0  0  0
    5.1962    6.0000    0.0000 C   0  0  0  0  0  0  0  0  0  0  0  0
    4.3301    7.5000    0.0000 C   0  0  0  0  0  0  0  0  0  0  0  0
    5.1962    7.0000    0.0000 C   0  0  0  0  0  0  0  0  0  0  0  0
    4.7286    4.9750    0.0000 H   0  0  0  0  0  0  0  0  0  0  0  0
    3.9316    4.9750    0.0000 H   0  0  0  0  0  0  0  0  0  0  0  0
    1.1951    4.3100    0.0000 H   0  0  0  0  0  0  0  0  0  0  0  0
    4.6592    2.6900    0.0000 H   0  0  0  0  0  0  0  0  0  0  0  0
    6.0622    5.1200    0.0000 H   0  0  0  0  0  0  0  0  0  0  0  0
    0.3291    2.8100    0.0000 H   0  0  0  0  0  0  0  0  0  0  0  0
    3.1350    2.8100    0.0000 H   0  0  0  0  0  0  0  0  0  0  0  0
    6.0622    1.8800    0.0000 H   0  0  0  0  0  0  0  0  0  0  0  0
    7.4651    4.3100    0.0000 H   0  0  0  0  0  0  0  0  0  0  0  0
    7.4651    2.6900    0.0000 H   0  0  0  0  0  0  0  0  0  0  0  0
    3.1350    1.1900    0.0000 H   0  0  0  0  0  0  0  0  0  0  0  0
    4.3301    4.8800    0.0000 H   0  0  0  0  0  0  0  0  0  0  0  0
    2.9272    7.3100    0.0000 H   0  0  0  0  0  0  0  0  0  0  0  0
    4.3301    8.1200    0.0000 H   0  0  0  0  0  0  0  0  0  0  0  0
   10.4651    3.8100    0.0000 H   0  0  0  0  0  0  0  0  0  0  0  0
  1 43  1  0  0  0  0 
  2 21  1  0  0  0  0 
  3 26  1  0  0  0  0 
  4  9  1  0  0  0  0 
  4 12  1  0  0  0  0 
  5 25  1  0  0  0  0 
  6 28  1  0  0  0  0 
  7 11  1  0  0  0  0 
  7 12  1  0  0  0  0 
  7 31  1  0  0  0  0 
  8 12  2  0  0  0  0 
  8 15  1  0  0  0  0 
  9 10  1  0  0  0  0 
  9 29  1  0  0  0  0 
  9 30  1  0  0  0  0 
 10 13  2  0  0  0  0 
 10 14  1  0  0  0  0 
 11 16  2  0  0  0  0 
 11 17  1  0  0  0  0 
 13 18  1  0  0  0  0 
 13 32  1  0  0  0  0 
 14 19  2  0  0  0  0 
 14 33  1  0  0  0  0 
 15 23  2  0  0  0  0 
 15 24  1  0  0  0  0 
 16 21  1  0  0  0  0 
 16 34  1  0  0  0  0 
 17 22  2  0  0  0  0 
 17 35  1  0  0  0  0 
 18 20  2  0  0  0  0 
 18 36  1  0  0  0  0 
 19 20  1  0  0  0  0 
 19 37  1  0  0  0  0 
 20 38  1  0  0  0  0 
 21 25  2  0  0  0  0 
 22 25  1  0  0  0  0 
 22 39  1  0  0  0  0 
 23 26  1  0  0  0  0 
 23 40  1  0  0  0  0 
 24 27  2  0  0  0  0 
 24 41  1  0  0  0  0 
 26 28  2  0  0  0  0 
 27 28  1  0  0  0  0 
 27 42  1  0  0  0  0 
M  END
> <cdk:Title>
23100455

> <cdk:Remark>
null

> <PUBCHEM_COMPOUND_CID>
23100455

> <PUBCHEM_COMPOUND_CANONICALIZED>
1

> <PUBCHEM_CACTVS_COMPLEXITY>
491

> <PUBCHEM_CACTVS_HBOND_ACCEPTOR>
4

> <PUBCHEM_CACTVS_HBOND_DONOR>
1

> <PUBCHEM_CACTVS_ROTATABLE_BOND>
6

> <PUBCHEM_CACTVS_SUBSKEYS>
AAADccB7AYBGEAAAAAAAAAAAAAAAAAAAAAAwYMAAAAAAAAABUAAAHQYQAAAADAqFWCixwILAAAigAiRCZACCEAFhBxAJiAAAZogIICLhm5GEIAhgkABIyAcQgAAOAAAAAAIAAAAAAAAABAAAAAAAAAAAAA==

> <PUBCHEM_IUPAC_OPENEYE_NAME>
2-benzyl-1,3-bis(3-chloro-4-fluoro-phenyl)isothiourea;hydrobromide

> <PUBCHEM_IUPAC_CAS_NAME>
N,N'-bis(3-chloro-4-fluorophenyl)carbamimidothioic acid (phenylmethyl) ester;hydrobromide

> <PUBCHEM_IUPAC_NAME>
benzyl N,N'-bis(3-chloro-4-fluorophenyl)carbamimidothioate;hydrobromide

> <PUBCHEM_IUPAC_SYSTEMATIC_NAME>
(phenylmethyl) N,N'-bis(3-chloranyl-4-fluoranyl-phenyl)carbamimidothioate;hydrobromide

> <PUBCHEM_IUPAC_TRADITIONAL_NAME>
2-benzyl-1,3-bis(3-chloro-4-fluoro-phenyl)isothiourea;hydrobromide

> <PUBCHEM_IUPAC_INCHI>
InChI=1S/C20H14Cl2F2N2S.BrH/c21-16-10-14(6-8-18(16)23)25-20(27-12-13-4-2-1-3-5-13)26-15-7-9-19(24)17(22)11-15;/h1-11H,12H2,(H,25,26);1H

> <PUBCHEM_IUPAC_INCHIKEY>
MKELPYZSWDIICO-UHFFFAOYSA-N

> <PUBCHEM_EXACT_MASS>
501.948443

> <PUBCHEM_MOLECULAR_FORMULA>
C20H15BrCl2F2N2S

> <PUBCHEM_MOLECULAR_WEIGHT>
504.218306

> <PUBCHEM_OPENEYE_CAN_SMILES>
C1=CC=C(C=C1)CSC(=NC2=CC(=C(C=C2)F)Cl)NC3=CC(=C(C=C3)F)Cl.Br

> <PUBCHEM_OPENEYE_ISO_SMILES>
C1=CC=C(C=C1)CSC(=NC2=CC(=C(C=C2)F)Cl)NC3=CC(=C(C=C3)F)Cl.Br

> <PUBCHEM_CACTVS_TPSA>
49.7

> <PUBCHEM_MONOISOTOPIC_WEIGHT>
501.948443

> <PUBCHEM_TOTAL_CHARGE>
0

> <PUBCHEM_HEAVY_ATOM_COUNT>
28

> <PUBCHEM_ATOM_DEF_STEREO_COUNT>
0

> <PUBCHEM_ATOM_UDEF_STEREO_COUNT>
0

> <PUBCHEM_BOND_DEF_STEREO_COUNT>
0

> <PUBCHEM_BOND_UDEF_STEREO_COUNT>
0

> <PUBCHEM_ISOTOPIC_ATOM_COUNT>
0

> <PUBCHEM_COMPONENT_COUNT>
2

> <PUBCHEM_CACTVS_TAUTO_COUNT>
1

> <PUBCHEM_COORDINATE_TYPE>
1

> <PUBCHEM_BONDANNOTATIONS>
10  13  8

$$$$
