37376101
  CDK     0101151218

 45 47  0  0  0  0  0  0  0  0999 V2000
    2.0000   -3.3512    0.0000 Cl  0  0  0  0  0  0  0  0  0  0  0  0
    5.4641   -5.3512    0.0000 Cl  0  0  0  0  0  0  0  0  0  0  0  0
    4.5981    4.1488    0.0000 O   0  0  0  0  0  0  0  0  0  0  0  0
    6.4347    5.1433    0.0000 O   0  0  0  0  0  0  0  0  0  0  0  0
    5.4641   -2.3512    0.0000 O   0  0  0  0  0  0  0  0  0  0  0  0
    5.4641    0.6488    0.0000 N   0  0  0  0  0  0  0  0  0  0  0  0
    5.4641    2.6488    0.0000 N   0  0  0  0  0  0  0  0  0  0  0  0
    3.7321   -2.3512    0.0000 N   0  0  0  0  0  0  0  0  0  0  0  0
    6.3301    1.1488    0.0000 C   0  0  0  0  0  0  0  0  0  0  0  0
    4.5981    1.1488    0.0000 C   0  0  0  0  0  0  0  0  0  0  0  0
    6.3301    2.1488    0.0000 C   0  0  0  0  0  0  0  0  0  0  0  0
    4.5981    2.1488    0.0000 C   0  0  0  0  0  0  0  0  0  0  0  0
    5.4641   -0.3512    0.0000 C   0  0  0  0  0  0  0  0  0  0  0  0
    4.5981   -0.8512    0.0000 C   0  0  0  0  0  0  0  0  0  0  0  0
    5.4641    3.6488    0.0000 C   0  0  0  0  0  0  0  0  0  0  0  0
    4.5981   -1.8512    0.0000 C   0  0  0  0  0  0  0  0  0  0  0  0
    6.3301    4.1488    0.0000 C   0  0  0  0  0  0  0  0  0  0  0  0
    7.2437    3.7421    0.0000 C   0  0  0  0  0  0  0  0  0  0  0  0
    3.7321   -3.3512    0.0000 C   0  0  0  0  0  0  0  0  0  0  0  0
    7.9128    4.4852    0.0000 C   0  0  0  0  0  0  0  0  0  0  0  0
    7.4128    5.3512    0.0000 C   0  0  0  0  0  0  0  0  0  0  0  0
    2.8660   -3.8512    0.0000 C   0  0  0  0  0  0  0  0  0  0  0  0
    4.5981   -3.8512    0.0000 C   0  0  0  0  0  0  0  0  0  0  0  0
    4.5981   -4.8512    0.0000 C   0  0  0  0  0  0  0  0  0  0  0  0
    2.8660   -4.8512    0.0000 C   0  0  0  0  0  0  0  0  0  0  0  0
    3.7321   -5.3512    0.0000 C   0  0  0  0  0  0  0  0  0  0  0  0
    6.5422    0.5662    0.0000 H   0  0  0  0  0  0  0  0  0  0  0  0
    6.9407    1.2565    0.0000 H   0  0  0  0  0  0  0  0  0  0  0  0
    3.9875    1.2565    0.0000 H   0  0  0  0  0  0  0  0  0  0  0  0
    4.3860    0.5662    0.0000 H   0  0  0  0  0  0  0  0  0  0  0  0
    6.9407    2.0411    0.0000 H   0  0  0  0  0  0  0  0  0  0  0  0
    6.5422    2.7314    0.0000 H   0  0  0  0  0  0  0  0  0  0  0  0
    4.3860    2.7314    0.0000 H   0  0  0  0  0  0  0  0  0  0  0  0
    3.9875    2.0411    0.0000 H   0  0  0  0  0  0  0  0  0  0  0  0
    5.6762   -0.9338    0.0000 H   0  0  0  0  0  0  0  0  0  0  0  0
    6.0747   -0.2436    0.0000 H   0  0  0  0  0  0  0  0  0  0  0  0
    4.3860   -0.2686    0.0000 H   0  0  0  0  0  0  0  0  0  0  0  0
    3.9875   -0.9589    0.0000 H   0  0  0  0  0  0  0  0  0  0  0  0
    3.1951   -2.0412    0.0000 H   0  0  0  0  0  0  0  0  0  0  0  0
    7.3726    3.1356    0.0000 H   0  0  0  0  0  0  0  0  0  0  0  0
    8.5294    4.4204    0.0000 H   0  0  0  0  0  0  0  0  0  0  0  0
    7.6650    5.9176    0.0000 H   0  0  0  0  0  0  0  0  0  0  0  0
    5.1350   -3.5412    0.0000 H   0  0  0  0  0  0  0  0  0  0  0  0
    2.3291   -5.1612    0.0000 H   0  0  0  0  0  0  0  0  0  0  0  0
    3.7321   -5.9712    0.0000 H   0  0  0  0  0  0  0  0  0  0  0  0
  1 22  1  0  0  0  0 
  2 24  1  0  0  0  0 
  3 15  2  0  0  0  0 
  4 17  1  0  0  0  0 
  4 21  1  0  0  0  0 
  5 16  2  0  0  0  0 
  6  9  1  0  0  0  0 
  6 10  1  0  0  0  0 
  6 13  1  0  0  0  0 
  7 11  1  0  0  0  0 
  7 12  1  0  0  0  0 
  7 15  1  0  0  0  0 
  8 16  1  0  0  0  0 
  8 19  1  0  0  0  0 
  8 39  1  0  0  0  0 
  9 11  1  0  0  0  0 
  9 27  1  0  0  0  0 
  9 28  1  0  0  0  0 
 10 12  1  0  0  0  0 
 10 29  1  0  0  0  0 
 10 30  1  0  0  0  0 
 11 31  1  0  0  0  0 
 11 32  1  0  0  0  0 
 12 33  1  0  0  0  0 
 12 34  1  0  0  0  0 
 13 14  1  0  0  0  0 
 13 35  1  0  0  0  0 
 13 36  1  0  0  0  0 
 14 16  1  0  0  0  0 
 14 37  1  0  0  0  0 
 14 38  1  0  0  0  0 
 15 17  1  0  0  0  0 
 17 18  2  0  0  0  0 
 18 20  1  0  0  0  0 
 18 40  1  0  0  0  0 
 19 22  2  0  0  0  0 
 19 23  1  0  0  0  0 
 20 21  2  0  0  0  0 
 20 41  1  0  0  0  0 
 21 42  1  0  0  0  0 
 22 25  1  0  0  0  0 
 23 24  2  0  0  0  0 
 23 43  1  0  0  0  0 
 24 26  1  0  0  0  0 
 25 26  2  0  0  0  0 
 25 44  1  0  0  0  0 
 26 45  1  0  0  0  0 
M  END
> <cdk:Title>
37376101

> <cdk:Remark>
null

> <PUBCHEM_COMPOUND_CID>
37376101

> <PUBCHEM_COMPOUND_CANONICALIZED>
1

> <PUBCHEM_CACTVS_COMPLEXITY>
500

> <PUBCHEM_CACTVS_HBOND_ACCEPTOR>
4

> <PUBCHEM_CACTVS_HBOND_DONOR>
1

> <PUBCHEM_CACTVS_ROTATABLE_BOND>
5

> <PUBCHEM_CACTVS_SUBSKEYS>
AAADceB7MAAGAAAAAAAAAAAAAAAAASAAAAA8QAAAAAAAAAABwAAAHgIQAAAACA7hkCYwxIPABECIAK1S0AKCCAAlJwAIiAHObsgOZjrF97/XOSjk1hHY6YeYFwIAAAAQAAIAABAAACAABAAAIAAAAAAAAA==

> <PUBCHEM_IUPAC_OPENEYE_NAME>
N-(2,5-dichlorophenyl)-3-[4-(furan-2-carbonyl)piperazin-1-yl]propanamide

> <PUBCHEM_IUPAC_CAS_NAME>
N-(2,5-dichlorophenyl)-3-[4-[2-furanyl(oxo)methyl]-1-piperazinyl]propanamide

> <PUBCHEM_IUPAC_NAME>
N-(2,5-dichlorophenyl)-3-[4-(furan-2-carbonyl)piperazin-1-yl]propanamide

> <PUBCHEM_IUPAC_SYSTEMATIC_NAME>
N-[2,5-bis(chloranyl)phenyl]-3-[4-(furan-2-ylcarbonyl)piperazin-1-yl]propanamide

> <PUBCHEM_IUPAC_TRADITIONAL_NAME>
N-(2,5-dichlorophenyl)-3-[4-(2-furoyl)piperazino]propionamide

> <PUBCHEM_IUPAC_INCHI>
InChI=1S/C18H19Cl2N3O3/c19-13-3-4-14(20)15(12-13)21-17(24)5-6-22-7-9-23(10-8-22)18(25)16-2-1-11-26-16/h1-4,11-12H,5-10H2,(H,21,24)

> <PUBCHEM_IUPAC_INCHIKEY>
VTNRTVFFNVVKEP-UHFFFAOYSA-N

> <PUBCHEM_XLOGP3_AA>
2.7

> <PUBCHEM_EXACT_MASS>
395.080347

> <PUBCHEM_MOLECULAR_FORMULA>
C18H19Cl2N3O3

> <PUBCHEM_MOLECULAR_WEIGHT>
396.26776

> <PUBCHEM_OPENEYE_CAN_SMILES>
C1CN(CCN1CCC(=O)NC2=C(C=CC(=C2)Cl)Cl)C(=O)C3=CC=CO3

> <PUBCHEM_OPENEYE_ISO_SMILES>
C1CN(CCN1CCC(=O)NC2=C(C=CC(=C2)Cl)Cl)C(=O)C3=CC=CO3

> <PUBCHEM_CACTVS_TPSA>
65.8

> <PUBCHEM_MONOISOTOPIC_WEIGHT>
395.080347

> <PUBCHEM_TOTAL_CHARGE>
0

> <PUBCHEM_HEAVY_ATOM_COUNT>
26

> <PUBCHEM_ATOM_DEF_STEREO_COUNT>
0

> <PUBCHEM_ATOM_UDEF_STEREO_COUNT>
0

> <PUBCHEM_BOND_DEF_STEREO_COUNT>
0

> <PUBCHEM_BOND_UDEF_STEREO_COUNT>
0

> <PUBCHEM_ISOTOPIC_ATOM_COUNT>
0

> <PUBCHEM_COMPONENT_COUNT>
1

> <PUBCHEM_CACTVS_TAUTO_COUNT>
2

> <PUBCHEM_COORDINATE_TYPE>
1

> <PUBCHEM_BONDANNOTATIONS>
17  18  8

$$$$
