53428689
  CDK     1228141037

 40 42  0  0  0  0  0  0  0  0999 V2000
    4.6783   -0.8163    0.0000 Se  0  0  0  0  0  0  0  0  0  0  0  0
   10.7619   -0.8776    0.0000 O   0  0  0  0  0  0  0  0  0  0  0  0
    9.2619   -1.7436    0.0000 O   0  0  0  0  0  0  0  0  0  0  0  0
    4.9889    1.7436    0.0000 O   0  0  0  0  0  0  0  0  0  0  0  0
    5.2619   -0.0116    0.0000 N   0  0  0  0  0  0  0  0  0  0  0  0
    9.2619   -0.0116    0.0000 C   0  0  3  0  0  0  0  0  0  0  0  0
    9.7619    0.8544    0.0000 C   0  0  0  0  0  0  0  0  0  0  0  0
    8.2619   -0.0116    0.0000 C   0  0  0  0  0  0  0  0  0  0  0  0
   10.7619    0.8544    0.0000 C   0  0  0  0  0  0  0  0  0  0  0  0
    6.2619   -0.0116    0.0000 C   0  0  0  0  0  0  0  0  0  0  0  0
    7.7619    0.8544    0.0000 C   0  0  0  0  0  0  0  0  0  0  0  0
    7.7619   -0.8776    0.0000 C   0  0  0  0  0  0  0  0  0  0  0  0
    9.7619   -0.8776    0.0000 C   0  0  0  0  0  0  0  0  0  0  0  0
    6.7619    0.8544    0.0000 C   0  0  0  0  0  0  0  0  0  0  0  0
    6.7619   -0.8776    0.0000 C   0  0  0  0  0  0  0  0  0  0  0  0
   11.2619    1.7204    0.0000 C   0  0  0  0  0  0  0  0  0  0  0  0
    3.7320    0.4884    0.0000 C   0  0  0  0  0  0  0  0  0  0  0  0
    4.6783    0.7931    0.0000 C   0  0  0  0  0  0  0  0  0  0  0  0
    3.7320   -0.5116    0.0000 C   0  0  0  0  0  0  0  0  0  0  0  0
    2.8660    0.9884    0.0000 C   0  0  0  0  0  0  0  0  0  0  0  0
    2.8660   -1.0116    0.0000 C   0  0  0  0  0  0  0  0  0  0  0  0
    2.0000    0.4884    0.0000 C   0  0  0  0  0  0  0  0  0  0  0  0
    2.0000   -0.5116    0.0000 C   0  0  0  0  0  0  0  0  0  0  0  0
    8.9519   -0.5485    0.0000 H   0  0  0  0  0  0  0  0  0  0  0  0
    9.8695    1.4650    0.0000 H   0  0  0  0  0  0  0  0  0  0  0  0
    9.1793    1.0665    0.0000 H   0  0  0  0  0  0  0  0  0  0  0  0
   10.6542    0.2438    0.0000 H   0  0  0  0  0  0  0  0  0  0  0  0
   11.3445    0.6424    0.0000 H   0  0  0  0  0  0  0  0  0  0  0  0
    8.0719    1.3914    0.0000 H   0  0  0  0  0  0  0  0  0  0  0  0
    8.0719   -1.4146    0.0000 H   0  0  0  0  0  0  0  0  0  0  0  0
    6.4519    1.3914    0.0000 H   0  0  0  0  0  0  0  0  0  0  0  0
    6.4519   -1.4146    0.0000 H   0  0  0  0  0  0  0  0  0  0  0  0
   11.7988    1.4104    0.0000 H   0  0  0  0  0  0  0  0  0  0  0  0
   11.5719    2.2574    0.0000 H   0  0  0  0  0  0  0  0  0  0  0  0
   10.7249    2.0304    0.0000 H   0  0  0  0  0  0  0  0  0  0  0  0
    2.8660    1.6084    0.0000 H   0  0  0  0  0  0  0  0  0  0  0  0
    2.8660   -1.6316    0.0000 H   0  0  0  0  0  0  0  0  0  0  0  0
    1.4631    0.7984    0.0000 H   0  0  0  0  0  0  0  0  0  0  0  0
    1.4631   -0.8216    0.0000 H   0  0  0  0  0  0  0  0  0  0  0  0
   11.0719   -1.4146    0.0000 H   0  0  0  0  0  0  0  0  0  0  0  0
  1  5  1  0  0  0  0 
  1 19  1  0  0  0  0 
  2 13  1  0  0  0  0 
  2 40  1  0  0  0  0 
  3 13  2  0  0  0  0 
  4 18  2  0  0  0  0 
  5 10  1  0  0  0  0 
  5 18  1  0  0  0  0 
  6  7  1  0  0  0  0 
  6  8  1  0  0  0  0 
  6 13  1  0  0  0  0 
  6 24  1  0  0  0  0 
  7  9  1  0  0  0  0 
  7 25  1  0  0  0  0 
  7 26  1  0  0  0  0 
  8 11  2  0  0  0  0 
  8 12  1  0  0  0  0 
  9 16  1  0  0  0  0 
  9 27  1  0  0  0  0 
  9 28  1  0  0  0  0 
 10 14  2  0  0  0  0 
 10 15  1  0  0  0  0 
 11 14  1  0  0  0  0 
 11 29  1  0  0  0  0 
 12 15  2  0  0  0  0 
 12 30  1  0  0  0  0 
 14 31  1  0  0  0  0 
 15 32  1  0  0  0  0 
 16 33  1  0  0  0  0 
 16 34  1  0  0  0  0 
 16 35  1  0  0  0  0 
 17 18  1  0  0  0  0 
 17 19  1  0  0  0  0 
 17 20  2  0  0  0  0 
 19 21  2  0  0  0  0 
 20 22  1  0  0  0  0 
 20 36  1  0  0  0  0 
 21 23  1  0  0  0  0 
 21 37  1  0  0  0  0 
 22 23  2  0  0  0  0 
 22 38  1  0  0  0  0 
 23 39  1  0  0  0  0 
M  END
> <cdk:Title>
53428689

> <cdk:Remark>
null

> <PUBCHEM_COMPOUND_CID>
53428689

> <PUBCHEM_COMPOUND_CANONICALIZED>
1

> <PUBCHEM_CACTVS_COMPLEXITY>
448

> <PUBCHEM_CACTVS_HBOND_ACCEPTOR>
3

> <PUBCHEM_CACTVS_HBOND_DONOR>
1

> <PUBCHEM_CACTVS_ROTATABLE_BOND>
5

> <PUBCHEM_CACTVS_SUBSKEYS>
AAADceB6MAAAAAAAIAAAAAAAAAAAAWAAAAAwYAAAAAAAAFgBQAAAHgCACAAADQiBmAAyyIIAAgCIAiXSWACCAAAlAgAIiAEAZMgIIDLAlZGEYQhkxAHIyYeYyOCOiAAAAAAAAAAQAAAAAAAAAAAAAAAAAA==

> <PUBCHEM_IUPAC_OPENEYE_NAME>
2-[4-(3-oxo-1,2-benzoselenazol-2-yl)phenyl]pentanoic acid

> <PUBCHEM_IUPAC_CAS_NAME>
2-[4-(3-oxo-1,2-benzoselenazol-2-yl)phenyl]pentanoic acid

> <PUBCHEM_IUPAC_NAME>
2-[4-(3-oxo-1,2-benzoselenazol-2-yl)phenyl]pentanoic acid

> <PUBCHEM_IUPAC_SYSTEMATIC_NAME>
2-[4-(3-oxidanylidene-1,2-benzoselenazol-2-yl)phenyl]pentanoic acid

> <PUBCHEM_IUPAC_TRADITIONAL_NAME>
2-[4-(3-keto-1,2-benzoselenazol-2-yl)phenyl]valeric acid

> <PUBCHEM_IUPAC_INCHI>
InChI=1S/C18H17NO3Se/c1-2-5-14(18(21)22)12-8-10-13(11-9-12)19-17(20)15-6-3-4-7-16(15)23-19/h3-4,6-11,14H,2,5H2,1H3,(H,21,22)

> <PUBCHEM_IUPAC_INCHIKEY>
DJACHQZLVXEYIY-UHFFFAOYSA-N

> <PUBCHEM_EXACT_MASS>
375.037365

> <PUBCHEM_MOLECULAR_FORMULA>
C18H17NO3Se

> <PUBCHEM_MOLECULAR_WEIGHT>
374.29248

> <PUBCHEM_OPENEYE_CAN_SMILES>
CCCC(C1=CC=C(C=C1)N2C(=O)C3=CC=CC=C3[Se]2)C(=O)O

> <PUBCHEM_OPENEYE_ISO_SMILES>
CCCC(C1=CC=C(C=C1)N2C(=O)C3=CC=CC=C3[Se]2)C(=O)O

> <PUBCHEM_CACTVS_TPSA>
57.6

> <PUBCHEM_MONOISOTOPIC_WEIGHT>
375.037365

> <PUBCHEM_TOTAL_CHARGE>
0

> <PUBCHEM_HEAVY_ATOM_COUNT>
23

> <PUBCHEM_ATOM_DEF_STEREO_COUNT>
0

> <PUBCHEM_ATOM_UDEF_STEREO_COUNT>
1

> <PUBCHEM_BOND_DEF_STEREO_COUNT>
0

> <PUBCHEM_BOND_UDEF_STEREO_COUNT>
0

> <PUBCHEM_ISOTOPIC_ATOM_COUNT>
0

> <PUBCHEM_COMPONENT_COUNT>
1

> <PUBCHEM_CACTVS_TAUTO_COUNT>
1

> <PUBCHEM_COORDINATE_TYPE>
1

> <PUBCHEM_BONDANNOTATIONS>
1  19  8

$$$$
