45769398
  CDK     0104150955

 48 50  0  0  0  0  0  0  0  0999 V2000
    3.7320   -5.4239    0.0000 Cl  0  0  0  0  0  0  0  0  0  0  0  0
    7.5622    4.6149    0.0000 O   0  0  0  0  0  0  0  0  0  0  0  0
    5.4641   -1.4239    0.0000 O   0  0  0  0  0  0  0  0  0  0  0  0
    7.1962    1.5761    0.0000 N   0  0  0  0  0  0  0  0  0  0  0  0
    5.4641    0.5761    0.0000 N   0  0  0  0  0  0  0  0  0  0  0  0
    3.7320   -1.4239    0.0000 N   0  0  0  0  0  0  0  0  0  0  0  0
    7.2532    3.6639    0.0000 N   0  0  0  0  0  0  0  0  0  0  0  0
    6.3301    2.0761    0.0000 C   0  0  0  0  0  0  0  0  0  0  0  0
    7.1962    0.5761    0.0000 C   0  0  0  0  0  0  0  0  0  0  0  0
    5.4641    1.5761    0.0000 C   0  0  0  0  0  0  0  0  0  0  0  0
    6.3301    0.0761    0.0000 C   0  0  0  0  0  0  0  0  0  0  0  0
    8.0622    2.0761    0.0000 C   0  0  0  0  0  0  0  0  0  0  0  0
    4.5981    0.0761    0.0000 C   0  0  0  0  0  0  0  0  0  0  0  0
    8.0622    3.0761    0.0000 C   0  0  0  0  0  0  0  0  0  0  0  0
    4.5981   -0.9239    0.0000 C   0  0  0  0  0  0  0  0  0  0  0  0
    8.8712    3.6639    0.0000 C   0  0  0  0  0  0  0  0  0  0  0  0
    8.5622    4.6149    0.0000 C   0  0  0  0  0  0  0  0  0  0  0  0
    3.7320   -2.4239    0.0000 C   0  0  0  0  0  0  0  0  0  0  0  0
    2.8660   -2.9239    0.0000 C   0  0  0  0  0  0  0  0  0  0  0  0
    9.1500    5.4239    0.0000 C   0  0  0  0  0  0  0  0  0  0  0  0
    4.5981   -2.9239    0.0000 C   0  0  0  0  0  0  0  0  0  0  0  0
    2.8660   -3.9239    0.0000 C   0  0  0  0  0  0  0  0  0  0  0  0
    2.0000   -2.4239    0.0000 C   0  0  0  0  0  0  0  0  0  0  0  0
    4.5981   -3.9239    0.0000 C   0  0  0  0  0  0  0  0  0  0  0  0
    3.7320   -4.4239    0.0000 C   0  0  0  0  0  0  0  0  0  0  0  0
    7.4082   -0.0065    0.0000 H   0  0  0  0  0  0  0  0  0  0  0  0
    7.8067    0.6837    0.0000 H   0  0  0  0  0  0  0  0  0  0  0  0
    6.7287    2.5510    0.0000 H   0  0  0  0  0  0  0  0  0  0  0  0
    5.9316    2.5510    0.0000 H   0  0  0  0  0  0  0  0  0  0  0  0
    5.9316   -0.3989    0.0000 H   0  0  0  0  0  0  0  0  0  0  0  0
    6.7287   -0.3989    0.0000 H   0  0  0  0  0  0  0  0  0  0  0  0
    5.2520    2.1587    0.0000 H   0  0  0  0  0  0  0  0  0  0  0  0
    4.8535    1.4684    0.0000 H   0  0  0  0  0  0  0  0  0  0  0  0
    8.2742    1.4935    0.0000 H   0  0  0  0  0  0  0  0  0  0  0  0
    8.6728    2.1837    0.0000 H   0  0  0  0  0  0  0  0  0  0  0  0
    4.3860    0.6587    0.0000 H   0  0  0  0  0  0  0  0  0  0  0  0
    3.9875   -0.0316    0.0000 H   0  0  0  0  0  0  0  0  0  0  0  0
    9.4608    3.4723    0.0000 H   0  0  0  0  0  0  0  0  0  0  0  0
    3.1951   -1.1139    0.0000 H   0  0  0  0  0  0  0  0  0  0  0  0
    9.6516    5.0595    0.0000 H   0  0  0  0  0  0  0  0  0  0  0  0
    9.5144    5.9255    0.0000 H   0  0  0  0  0  0  0  0  0  0  0  0
    8.6484    5.7884    0.0000 H   0  0  0  0  0  0  0  0  0  0  0  0
    5.1350   -2.6139    0.0000 H   0  0  0  0  0  0  0  0  0  0  0  0
    2.3291   -4.2339    0.0000 H   0  0  0  0  0  0  0  0  0  0  0  0
    2.3100   -1.8870    0.0000 H   0  0  0  0  0  0  0  0  0  0  0  0
    1.4631   -2.1139    0.0000 H   0  0  0  0  0  0  0  0  0  0  0  0
    1.6900   -2.9609    0.0000 H   0  0  0  0  0  0  0  0  0  0  0  0
    5.1350   -4.2339    0.0000 H   0  0  0  0  0  0  0  0  0  0  0  0
  1 25  1  0  0  0  0 
  2  7  1  0  0  0  0 
  2 17  1  0  0  0  0 
  3 15  2  0  0  0  0 
  4  8  1  0  0  0  0 
  4  9  1  0  0  0  0 
  4 12  1  0  0  0  0 
  5 10  1  0  0  0  0 
  5 11  1  0  0  0  0 
  5 13  1  0  0  0  0 
  6 15  1  0  0  0  0 
  6 18  1  0  0  0  0 
  6 39  1  0  0  0  0 
  7 14  2  0  0  0  0 
  8 10  1  0  0  0  0 
  8 28  1  0  0  0  0 
  8 29  1  0  0  0  0 
  9 11  1  0  0  0  0 
  9 26  1  0  0  0  0 
  9 27  1  0  0  0  0 
 10 32  1  0  0  0  0 
 10 33  1  0  0  0  0 
 11 30  1  0  0  0  0 
 11 31  1  0  0  0  0 
 12 14  1  0  0  0  0 
 12 34  1  0  0  0  0 
 12 35  1  0  0  0  0 
 13 15  1  0  0  0  0 
 13 36  1  0  0  0  0 
 13 37  1  0  0  0  0 
 14 16  1  0  0  0  0 
 16 17  2  0  0  0  0 
 16 38  1  0  0  0  0 
 17 20  1  0  0  0  0 
 18 19  2  0  0  0  0 
 18 21  1  0  0  0  0 
 19 22  1  0  0  0  0 
 19 23  1  0  0  0  0 
 20 40  1  0  0  0  0 
 20 41  1  0  0  0  0 
 20 42  1  0  0  0  0 
 21 24  2  0  0  0  0 
 21 43  1  0  0  0  0 
 22 25  2  0  0  0  0 
 22 44  1  0  0  0  0 
 23 45  1  0  0  0  0 
 23 46  1  0  0  0  0 
 23 47  1  0  0  0  0 
 24 25  1  0  0  0  0 
 24 48  1  0  0  0  0 
M  END
> <cdk:Title>
45769398

> <cdk:Remark>
null

> <PUBCHEM_COMPOUND_CID>
45769398

> <PUBCHEM_COMPOUND_CANONICALIZED>
1

> <PUBCHEM_CACTVS_COMPLEXITY>
445

> <PUBCHEM_CACTVS_HBOND_ACCEPTOR>
5

> <PUBCHEM_CACTVS_HBOND_DONOR>
1

> <PUBCHEM_CACTVS_ROTATABLE_BOND>
5

> <PUBCHEM_CACTVS_SUBSKEYS>
AAADceB7sAAEAAAAAAAAAAAAAAAAAWAAAAA8QAAAAAAAAAABwAAAHgIUAAAADA7BniQyxJPQAACpA6VyUgCCAAAlJwAomCG+btoIZjrBk7OUMYhmlBjIyUc0gAAOAABAIAACAAAAAIBAAAQAAAAAAAAAAA==

> <PUBCHEM_IUPAC_OPENEYE_NAME>
N-(4-chloro-2-methyl-phenyl)-2-[4-[(5-methylisoxazol-3-yl)methyl]piperazin-1-yl]acetamide

> <PUBCHEM_IUPAC_CAS_NAME>
N-(4-chloro-2-methylphenyl)-2-[4-[(5-methyl-3-isoxazolyl)methyl]-1-piperazinyl]acetamide

> <PUBCHEM_IUPAC_NAME>
N-(4-chloro-2-methylphenyl)-2-[4-[(5-methyl-1,2-oxazol-3-yl)methyl]piperazin-1-yl]acetamide

> <PUBCHEM_IUPAC_SYSTEMATIC_NAME>
N-(4-chloranyl-2-methyl-phenyl)-2-[4-[(5-methyl-1,2-oxazol-3-yl)methyl]piperazin-1-yl]ethanamide

> <PUBCHEM_IUPAC_TRADITIONAL_NAME>
N-(4-chloro-2-methyl-phenyl)-2-[4-[(5-methylisoxazol-3-yl)methyl]piperazino]acetamide

> <PUBCHEM_IUPAC_INCHI>
InChI=1S/C18H23ClN4O2/c1-13-9-15(19)3-4-17(13)20-18(24)12-23-7-5-22(6-8-23)11-16-10-14(2)25-21-16/h3-4,9-10H,5-8,11-12H2,1-2H3,(H,20,24)

> <PUBCHEM_IUPAC_INCHIKEY>
UIIQYZWPTVFGFV-UHFFFAOYSA-N

> <PUBCHEM_XLOGP3_AA>
2.3

> <PUBCHEM_EXACT_MASS>
362.150954

> <PUBCHEM_MOLECULAR_FORMULA>
C18H23ClN4O2

> <PUBCHEM_MOLECULAR_WEIGHT>
362.85382

> <PUBCHEM_OPENEYE_CAN_SMILES>
CC1=CC(=NO1)CN2CCN(CC2)CC(=O)NC3=C(C=C(C=C3)Cl)C

> <PUBCHEM_OPENEYE_ISO_SMILES>
CC1=CC(=NO1)CN2CCN(CC2)CC(=O)NC3=C(C=C(C=C3)Cl)C

> <PUBCHEM_CACTVS_TPSA>
61.6

> <PUBCHEM_MONOISOTOPIC_WEIGHT>
362.150954

> <PUBCHEM_TOTAL_CHARGE>
0

> <PUBCHEM_HEAVY_ATOM_COUNT>
25

> <PUBCHEM_ATOM_DEF_STEREO_COUNT>
0

> <PUBCHEM_ATOM_UDEF_STEREO_COUNT>
0

> <PUBCHEM_BOND_DEF_STEREO_COUNT>
0

> <PUBCHEM_BOND_UDEF_STEREO_COUNT>
0

> <PUBCHEM_ISOTOPIC_ATOM_COUNT>
0

> <PUBCHEM_COMPONENT_COUNT>
1

> <PUBCHEM_CACTVS_TAUTO_COUNT>
2

> <PUBCHEM_COORDINATE_TYPE>
1

> <PUBCHEM_BONDANNOTATIONS>
14  16  8

$$$$
32830389
  CDK     0104150955

 42 44  0  0  0  0  0  0  0  0999 V2000
    2.0000    2.3961    0.0000 Cl  0  0  0  0  0  0  0  0  0  0  0  0
    9.2765    2.3132    0.0000 S   0  0  0  0  0  0  0  0  0  0  0  0
    3.4945    1.4255    0.0000 S   0  0  0  0  0  0  0  0  0  0  0  0
    6.7021   -0.3740    0.0000 O   0  0  0  0  0  0  0  0  0  0  0  0
    9.5553    0.5531    0.0000 N   0  0  0  0  0  0  0  0  0  0  0  0
   10.8643    1.5042    0.0000 N   0  0  0  0  0  0  0  0  0  0  0  0
   11.1733    0.5531    0.0000 N   0  0  0  0  0  0  0  0  0  0  0  0
    6.1669    1.2733    0.0000 N   0  0  0  0  0  0  0  0  0  0  0  0
    8.6042    0.2441    0.0000 C   0  0  0  0  0  0  0  0  0  0  0  0
    7.8611    0.9132    0.0000 C   0  0  0  0  0  0  0  0  0  0  0  0
   10.3643   -0.0347    0.0000 C   0  0  0  0  0  0  0  0  0  0  0  0
   10.3643   -1.0347    0.0000 C   0  0  0  0  0  0  0  0  0  0  0  0
    9.8643    1.5042    0.0000 C   0  0  0  0  0  0  0  0  0  0  0  0
    6.9100    0.6042    0.0000 C   0  0  0  0  0  0  0  0  0  0  0  0
    9.4983   -1.5347    0.0000 C   0  0  0  0  0  0  0  0  0  0  0  0
   11.2303   -1.5347    0.0000 C   0  0  0  0  0  0  0  0  0  0  0  0
    5.2158    0.9643    0.0000 C   0  0  0  0  0  0  0  0  0  0  0  0
    9.4983   -2.5347    0.0000 C   0  0  0  0  0  0  0  0  0  0  0  0
   11.2303   -2.5347    0.0000 C   0  0  0  0  0  0  0  0  0  0  0  0
   10.3643   -3.0347    0.0000 C   0  0  0  0  0  0  0  0  0  0  0  0
    4.4727    1.6334    0.0000 C   0  0  0  0  0  0  0  0  0  0  0  0
    8.6322   -3.0347    0.0000 C   0  0  0  0  0  0  0  0  0  0  0  0
    4.5772    2.6280    0.0000 C   0  0  0  0  0  0  0  0  0  0  0  0
    3.6637    3.0347    0.0000 C   0  0  0  0  0  0  0  0  0  0  0  0
    2.9945    2.2916    0.0000 C   0  0  0  0  0  0  0  0  0  0  0  0
    8.1157   -0.1376    0.0000 H   0  0  0  0  0  0  0  0  0  0  0  0
    8.8953   -0.3034    0.0000 H   0  0  0  0  0  0  0  0  0  0  0  0
    8.3496    1.2949    0.0000 H   0  0  0  0  0  0  0  0  0  0  0  0
    7.5700    1.4606    0.0000 H   0  0  0  0  0  0  0  0  0  0  0  0
    8.9613   -1.2247    0.0000 H   0  0  0  0  0  0  0  0  0  0  0  0
   11.2287    2.0057    0.0000 H   0  0  0  0  0  0  0  0  0  0  0  0
   11.7673   -1.2247    0.0000 H   0  0  0  0  0  0  0  0  0  0  0  0
    6.2958    1.8798    0.0000 H   0  0  0  0  0  0  0  0  0  0  0  0
    4.7273    0.5826    0.0000 H   0  0  0  0  0  0  0  0  0  0  0  0
    5.5069    0.4169    0.0000 H   0  0  0  0  0  0  0  0  0  0  0  0
   11.7673   -2.8447    0.0000 H   0  0  0  0  0  0  0  0  0  0  0  0
   10.3643   -3.6547    0.0000 H   0  0  0  0  0  0  0  0  0  0  0  0
    8.3222   -2.4978    0.0000 H   0  0  0  0  0  0  0  0  0  0  0  0
    8.0953   -3.3447    0.0000 H   0  0  0  0  0  0  0  0  0  0  0  0
    8.9422   -3.5716    0.0000 H   0  0  0  0  0  0  0  0  0  0  0  0
    5.1141    2.9380    0.0000 H   0  0  0  0  0  0  0  0  0  0  0  0
    3.5348    3.6411    0.0000 H   0  0  0  0  0  0  0  0  0  0  0  0
  1 25  1  0  0  0  0 
  2 13  2  0  0  0  0 
  3 21  1  0  0  0  0 
  3 25  1  0  0  0  0 
  4 14  2  0  0  0  0 
  5  9  1  0  0  0  0 
  5 11  1  0  0  0  0 
  5 13  1  0  0  0  0 
  6  7  1  0  0  0  0 
  6 13  1  0  0  0  0 
  6 31  1  0  0  0  0 
  7 11  2  0  0  0  0 
  8 14  1  0  0  0  0 
  8 17  1  0  0  0  0 
  8 33  1  0  0  0  0 
  9 10  1  0  0  0  0 
  9 26  1  0  0  0  0 
  9 27  1  0  0  0  0 
 10 14  1  0  0  0  0 
 10 28  1  0  0  0  0 
 10 29  1  0  0  0  0 
 11 12  1  0  0  0  0 
 12 15  1  0  0  0  0 
 12 16  2  0  0  0  0 
 15 18  2  0  0  0  0 
 15 30  1  0  0  0  0 
 16 19  1  0  0  0  0 
 16 32  1  0  0  0  0 
 17 21  1  0  0  0  0 
 17 34  1  0  0  0  0 
 17 35  1  0  0  0  0 
 18 20  1  0  0  0  0 
 18 22  1  0  0  0  0 
 19 20  2  0  0  0  0 
 19 36  1  0  0  0  0 
 20 37  1  0  0  0  0 
 21 23  2  0  0  0  0 
 22 38  1  0  0  0  0 
 22 39  1  0  0  0  0 
 22 40  1  0  0  0  0 
 23 24  1  0  0  0  0 
 23 41  1  0  0  0  0 
 24 25  2  0  0  0  0 
 24 42  1  0  0  0  0 
M  END
> <cdk:Title>
32830389

> <cdk:Remark>
null

> <PUBCHEM_COMPOUND_CID>
32830389

> <PUBCHEM_COMPOUND_CANONICALIZED>
1

> <PUBCHEM_CACTVS_COMPLEXITY>
545

> <PUBCHEM_CACTVS_HBOND_ACCEPTOR>
4

> <PUBCHEM_CACTVS_HBOND_DONOR>
2

> <PUBCHEM_CACTVS_ROTATABLE_BOND>
6

> <PUBCHEM_CACTVS_SUBSKEYS>
AAADceB7oABkAAAAAAAAAAAAAAAAASIAAAAwAAAAAAAAAAABwAAAHgYYAAAADALB2CQzAYPiAAisAiNyMACTAIAgDRlNiJkoBpiIIKqh2xGEIAhgngKoiAcQgEAOAAACAAAAAAAAAAQAAAAAAAAAAAAAAA==

> <PUBCHEM_IUPAC_OPENEYE_NAME>
N-[(5-chloro-2-thienyl)methyl]-3-[3-(m-tolyl)-5-thioxo-1H-1,2,4-triazol-4-yl]propanamide

> <PUBCHEM_IUPAC_CAS_NAME>
N-[(5-chloro-2-thiophenyl)methyl]-3-[3-(3-methylphenyl)-5-sulfanylidene-1H-1,2,4-triazol-4-yl]propanamide

> <PUBCHEM_IUPAC_NAME>
N-[(5-chlorothiophen-2-yl)methyl]-3-[3-(3-methylphenyl)-5-sulfanylidene-1H-1,2,4-triazol-4-yl]propanamide

> <PUBCHEM_IUPAC_SYSTEMATIC_NAME>
N-[(5-chloranylthiophen-2-yl)methyl]-3-[3-(3-methylphenyl)-5-sulfanylidene-1H-1,2,4-triazol-4-yl]propanamide

> <PUBCHEM_IUPAC_TRADITIONAL_NAME>
N-[(5-chloro-2-thienyl)methyl]-3-[3-(m-tolyl)-5-thioxo-1H-1,2,4-triazol-4-yl]propionamide

> <PUBCHEM_IUPAC_INCHI>
InChI=1S/C17H17ClN4OS2/c1-11-3-2-4-12(9-11)16-20-21-17(24)22(16)8-7-15(23)19-10-13-5-6-14(18)25-13/h2-6,9H,7-8,10H2,1H3,(H,19,23)(H,21,24)

> <PUBCHEM_IUPAC_INCHIKEY>
NWUHMLGPGOEZFS-UHFFFAOYSA-N

> <PUBCHEM_XLOGP3_AA>
3.4

> <PUBCHEM_EXACT_MASS>
392.053231

> <PUBCHEM_MOLECULAR_FORMULA>
C17H17ClN4OS2

> <PUBCHEM_MOLECULAR_WEIGHT>
392.92608

> <PUBCHEM_OPENEYE_CAN_SMILES>
CC1=CC=CC(=C1)C2=NNC(=S)N2CCC(=O)NCC3=CC=C(S3)Cl

> <PUBCHEM_OPENEYE_ISO_SMILES>
CC1=CC=CC(=C1)C2=NNC(=S)N2CCC(=O)NCC3=CC=C(S3)Cl

> <PUBCHEM_CACTVS_TPSA>
117

> <PUBCHEM_MONOISOTOPIC_WEIGHT>
392.053231

> <PUBCHEM_TOTAL_CHARGE>
0

> <PUBCHEM_HEAVY_ATOM_COUNT>
25

> <PUBCHEM_ATOM_DEF_STEREO_COUNT>
0

> <PUBCHEM_ATOM_UDEF_STEREO_COUNT>
0

> <PUBCHEM_BOND_DEF_STEREO_COUNT>
0

> <PUBCHEM_BOND_UDEF_STEREO_COUNT>
0

> <PUBCHEM_ISOTOPIC_ATOM_COUNT>
0

> <PUBCHEM_COMPONENT_COUNT>
1

> <PUBCHEM_CACTVS_TAUTO_COUNT>
4

> <PUBCHEM_COORDINATE_TYPE>
1

> <PUBCHEM_BONDANNOTATIONS>
12  15  8

$$$$
36089241
  CDK     0104150955

 49 51  0  0  0  0  0  0  0  0999 V2000
    3.7321    5.1830    0.0000 Br  0  0  0  0  0  0  0  0  0  0  0  0
    2.0000   -2.8170    0.0000 O   0  0  0  0  0  0  0  0  0  0  0  0
    7.1962    3.1830    0.0000 O   0  0  0  0  0  0  0  0  0  0  0  0
    3.7321   -2.8170    0.0000 N   0  0  0  0  0  0  0  0  0  0  0  0
    4.5981    1.6830    0.0000 N   0  0  0  0  0  0  0  0  0  0  0  0
    2.8660   -4.3170    0.0000 C   0  0  0  0  0  0  0  0  0  0  0  0
    2.3660   -5.1830    0.0000 C   0  0  0  0  0  0  0  0  0  0  0  0
    3.3660   -5.1830    0.0000 C   0  0  0  0  0  0  0  0  0  0  0  0
    2.8660   -3.3170    0.0000 C   0  0  0  0  0  0  0  0  0  0  0  0
    3.7321    1.1830    0.0000 C   0  0  2  0  0  0  0  0  0  0  0  0
    3.7321    0.1830    0.0000 C   0  0  0  0  0  0  0  0  0  0  0  0
    3.7321   -1.8170    0.0000 C   0  0  0  0  0  0  0  0  0  0  0  0
    5.4641    2.1830    0.0000 C   0  0  0  0  0  0  0  0  0  0  0  0
    2.8660    1.6830    0.0000 C   0  0  0  0  0  0  0  0  0  0  0  0
    4.5981   -0.3170    0.0000 C   0  0  0  0  0  0  0  0  0  0  0  0
    2.8660   -0.3170    0.0000 C   0  0  0  0  0  0  0  0  0  0  0  0
    4.5981   -1.3170    0.0000 C   0  0  0  0  0  0  0  0  0  0  0  0
    2.8660   -1.3170    0.0000 C   0  0  0  0  0  0  0  0  0  0  0  0
    5.4641    3.1830    0.0000 C   0  0  0  0  0  0  0  0  0  0  0  0
    6.3301    3.6830    0.0000 C   0  0  0  0  0  0  0  0  0  0  0  0
    4.5981    3.6830    0.0000 C   0  0  0  0  0  0  0  0  0  0  0  0
    6.3301    4.6830    0.0000 C   0  0  0  0  0  0  0  0  0  0  0  0
    4.5981    4.6830    0.0000 C   0  0  0  0  0  0  0  0  0  0  0  0
    5.4641    5.1830    0.0000 C   0  0  0  0  0  0  0  0  0  0  0  0
    8.0622    3.6830    0.0000 C   0  0  0  0  0  0  0  0  0  0  0  0
    3.4649   -4.1565    0.0000 H   0  0  0  0  0  0  0  0  0  0  0  0
    1.7834   -4.9710    0.0000 H   0  0  0  0  0  0  0  0  0  0  0  0
    2.2584   -5.7936    0.0000 H   0  0  0  0  0  0  0  0  0  0  0  0
    3.4737   -5.7936    0.0000 H   0  0  0  0  0  0  0  0  0  0  0  0
    3.9486   -4.9710    0.0000 H   0  0  0  0  0  0  0  0  0  0  0  0
    4.2690   -3.1270    0.0000 H   0  0  0  0  0  0  0  0  0  0  0  0
    3.7321    1.8030    0.0000 H   0  0  0  0  0  0  0  0  0  0  0  0
    4.2881    2.2200    0.0000 H   0  0  0  0  0  0  0  0  0  0  0  0
    4.9081    1.1461    0.0000 H   0  0  0  0  0  0  0  0  0  0  0  0
    5.6762    1.6004    0.0000 H   0  0  0  0  0  0  0  0  0  0  0  0
    6.0747    2.2907    0.0000 H   0  0  0  0  0  0  0  0  0  0  0  0
    3.1760    2.2200    0.0000 H   0  0  0  0  0  0  0  0  0  0  0  0
    2.3291    1.9930    0.0000 H   0  0  0  0  0  0  0  0  0  0  0  0
    2.5560    1.1461    0.0000 H   0  0  0  0  0  0  0  0  0  0  0  0
    5.1350   -0.0070    0.0000 H   0  0  0  0  0  0  0  0  0  0  0  0
    2.3291   -0.0070    0.0000 H   0  0  0  0  0  0  0  0  0  0  0  0
    5.1350   -1.6270    0.0000 H   0  0  0  0  0  0  0  0  0  0  0  0
    2.3291   -1.6270    0.0000 H   0  0  0  0  0  0  0  0  0  0  0  0
    4.0611    3.3730    0.0000 H   0  0  0  0  0  0  0  0  0  0  0  0
    6.8671    4.9930    0.0000 H   0  0  0  0  0  0  0  0  0  0  0  0
    5.4641    5.8030    0.0000 H   0  0  0  0  0  0  0  0  0  0  0  0
    8.3722    3.1461    0.0000 H   0  0  0  0  0  0  0  0  0  0  0  0
    8.5991    3.9930    0.0000 H   0  0  0  0  0  0  0  0  0  0  0  0
    7.7522    4.2200    0.0000 H   0  0  0  0  0  0  0  0  0  0  0  0
  1 23  1  0  0  0  0 
  2  9  2  0  0  0  0 
  3 20  1  0  0  0  0 
  3 25  1  0  0  0  0 
  4  9  1  0  0  0  0 
  4 12  1  0  0  0  0 
  4 31  1  0  0  0  0 
 10  5  1  6  0  0  0 
  5 13  1  0  0  0  0 
  5 33  1  0  0  0  0 
  5 34  1  0  0  0  0 
  6  7  1  0  0  0  0 
  6  8  1  0  0  0  0 
  6  9  1  0  0  0  0 
  6 26  1  0  0  0  0 
  7  8  1  0  0  0  0 
  7 27  1  0  0  0  0 
  7 28  1  0  0  0  0 
  8 29  1  0  0  0  0 
  8 30  1  0  0  0  0 
 10 11  1  0  0  0  0 
 10 14  1  0  0  0  0 
 10 32  1  0  0  0  0 
 11 15  2  0  0  0  0 
 11 16  1  0  0  0  0 
 12 17  2  0  0  0  0 
 12 18  1  0  0  0  0 
 13 19  1  0  0  0  0 
 13 35  1  0  0  0  0 
 13 36  1  0  0  0  0 
 14 37  1  0  0  0  0 
 14 38  1  0  0  0  0 
 14 39  1  0  0  0  0 
 15 17  1  0  0  0  0 
 15 40  1  0  0  0  0 
 16 18  2  0  0  0  0 
 16 41  1  0  0  0  0 
 17 42  1  0  0  0  0 
 18 43  1  0  0  0  0 
 19 20  2  0  0  0  0 
 19 21  1  0  0  0  0 
 20 22  1  0  0  0  0 
 21 23  2  0  0  0  0 
 21 44  1  0  0  0  0 
 22 24  2  0  0  0  0 
 22 45  1  0  0  0  0 
 23 24  1  0  0  0  0 
 24 46  1  0  0  0  0 
 25 47  1  0  0  0  0 
 25 48  1  0  0  0  0 
 25 49  1  0  0  0  0 
M  CHG  1   5   1
M  END
> <cdk:Title>
36089241

> <cdk:Remark>
null

> <PUBCHEM_COMPOUND_CID>
36089241

> <PUBCHEM_COMPOUND_CANONICALIZED>
1

> <PUBCHEM_CACTVS_COMPLEXITY>
435

> <PUBCHEM_CACTVS_HBOND_ACCEPTOR>
2

> <PUBCHEM_CACTVS_HBOND_DONOR>
2

> <PUBCHEM_CACTVS_ROTATABLE_BOND>
7

> <PUBCHEM_CACTVS_SUBSKEYS>
AAADceB7MAAAEAAAAAAAAAAAGAAAAAAAAAAwYAAAAAAAAAABQAAAHgBQAAABrSzBmAYyxoLABACIAiVSUACCCAAhIgQIiIEObKgMJjLEsZuEMChm1BHI6heQwKAOCBAAEAAIAAAQIAAgABAAAAAAAAAAAA==

> <PUBCHEM_IUPAC_OPENEYE_NAME>
(5-bromo-2-methoxy-phenyl)methyl-[(1S)-1-[4-(cyclopropanecarbonylamino)phenyl]ethyl]ammonium

> <PUBCHEM_IUPAC_CAS_NAME>
(5-bromo-2-methoxyphenyl)methyl-[(1S)-1-[4-[[cyclopropyl(oxo)methyl]amino]phenyl]ethyl]ammonium

> <PUBCHEM_IUPAC_NAME>
(5-bromo-2-methoxyphenyl)methyl-[(1S)-1-[4-(cyclopropanecarbonylamino)phenyl]ethyl]azanium

> <PUBCHEM_IUPAC_SYSTEMATIC_NAME>
(5-bromanyl-2-methoxy-phenyl)methyl-[(1S)-1-[4-(cyclopropylcarbonylamino)phenyl]ethyl]azanium

> <PUBCHEM_IUPAC_TRADITIONAL_NAME>
(5-bromo-2-methoxy-benzyl)-[(1S)-1-[4-(cyclopropanecarbonylamino)phenyl]ethyl]ammonium

> <PUBCHEM_IUPAC_INCHI>
InChI=1S/C20H23BrN2O2/c1-13(22-12-16-11-17(21)7-10-19(16)25-2)14-5-8-18(9-6-14)23-20(24)15-3-4-15/h5-11,13,15,22H,3-4,12H2,1-2H3,(H,23,24)/p+1/t13-/m0/s1

> <PUBCHEM_IUPAC_INCHIKEY>
VEWRIBHYTRHXAB-ZDUSSCGKSA-O

> <PUBCHEM_XLOGP3_AA>
3.5

> <PUBCHEM_EXACT_MASS>
403.102115

> <PUBCHEM_MOLECULAR_FORMULA>
C20H24BrN2O2+

> <PUBCHEM_MOLECULAR_WEIGHT>
404.32076

> <PUBCHEM_OPENEYE_CAN_SMILES>
CC(C1=CC=C(C=C1)NC(=O)C2CC2)[NH2+]CC3=C(C=CC(=C3)Br)OC

> <PUBCHEM_OPENEYE_ISO_SMILES>
C[C@@H](C1=CC=C(C=C1)NC(=O)C2CC2)[NH2+]CC3=C(C=CC(=C3)Br)OC

> <PUBCHEM_CACTVS_TPSA>
54.9

> <PUBCHEM_MONOISOTOPIC_WEIGHT>
403.102115

> <PUBCHEM_TOTAL_CHARGE>
1

> <PUBCHEM_HEAVY_ATOM_COUNT>
25

> <PUBCHEM_ATOM_DEF_STEREO_COUNT>
1

> <PUBCHEM_ATOM_UDEF_STEREO_COUNT>
0

> <PUBCHEM_BOND_DEF_STEREO_COUNT>
0

> <PUBCHEM_BOND_UDEF_STEREO_COUNT>
0

> <PUBCHEM_ISOTOPIC_ATOM_COUNT>
0

> <PUBCHEM_COMPONENT_COUNT>
1

> <PUBCHEM_CACTVS_TAUTO_COUNT>
2

> <PUBCHEM_COORDINATE_TYPE>
1

> <PUBCHEM_BONDANNOTATIONS>
11  15  8

$$$$
19709223
  CDK     0104150955

 45 47  0  0  0  0  0  0  0  0999 V2000
    8.9942    0.4585    0.0000 O   0  0  0  0  0  0  0  0  0  0  0  0
   14.1903    0.4385    0.0000 O   0  0  0  0  0  0  0  0  0  0  0  0
   11.5942    0.9485    0.0000 N   0  0  0  0  0  0  0  0  0  0  0  0
    5.4641   -0.5173    0.0000 N   0  0  0  0  0  0  0  0  0  0  0  0
    7.2241    0.4480    0.0000 N   0  0  0  0  0  0  0  0  0  0  0  0
    4.5981    0.9827    0.0000 N   0  0  0  0  0  0  0  0  0  0  0  0
    8.1301    2.0035    0.0000 N   0  0  0  0  0  0  0  0  0  0  0  0
    5.4641    2.4827    0.0000 N   0  0  0  0  0  0  0  0  0  0  0  0
   10.7263    0.4518    0.0000 C   0  0  0  0  0  0  0  0  0  0  0  0
    9.8622    0.9552    0.0000 C   0  0  0  0  0  0  0  0  0  0  0  0
   12.4583    0.4452    0.0000 C   0  0  0  0  0  0  0  0  0  0  0  0
    6.3301    0.9827    0.0000 C   0  0  0  0  0  0  0  0  0  0  0  0
    4.5981   -1.0173    0.0000 C   0  0  0  0  0  0  0  0  0  0  0  0
    5.4641    0.4827    0.0000 C   0  0  0  0  0  0  0  0  0  0  0  0
    6.3301    1.9827    0.0000 C   0  0  0  0  0  0  0  0  0  0  0  0
    3.7320   -0.5173    0.0000 C   0  0  0  0  0  0  0  0  0  0  0  0
    2.8660   -1.0173    0.0000 C   0  0  0  0  0  0  0  0  0  0  0  0
   13.3263    0.9418    0.0000 C   0  0  0  0  0  0  0  0  0  0  0  0
    8.1301    0.9619    0.0000 C   0  0  0  0  0  0  0  0  0  0  0  0
    4.5981   -2.0173    0.0000 C   0  0  0  0  0  0  0  0  0  0  0  0
    2.8660   -2.0173    0.0000 C   0  0  0  0  0  0  0  0  0  0  0  0
    3.7320   -2.5173    0.0000 C   0  0  0  0  0  0  0  0  0  0  0  0
    7.2241    2.5173    0.0000 C   0  0  0  0  0  0  0  0  0  0  0  0
    2.0000   -0.5173    0.0000 C   0  0  0  0  0  0  0  0  0  0  0  0
    4.5981    1.9827    0.0000 C   0  0  0  0  0  0  0  0  0  0  0  0
   10.3259   -0.0216    0.0000 H   0  0  0  0  0  0  0  0  0  0  0  0
   11.1230   -0.0246    0.0000 H   0  0  0  0  0  0  0  0  0  0  0  0
   10.2625    1.4286    0.0000 H   0  0  0  0  0  0  0  0  0  0  0  0
    9.4655    1.4317    0.0000 H   0  0  0  0  0  0  0  0  0  0  0  0
   11.5966    1.5685    0.0000 H   0  0  0  0  0  0  0  0  0  0  0  0
   12.0579   -0.0282    0.0000 H   0  0  0  0  0  0  0  0  0  0  0  0
   12.8550   -0.0313    0.0000 H   0  0  0  0  0  0  0  0  0  0  0  0
    6.0010   -0.8273    0.0000 H   0  0  0  0  0  0  0  0  0  0  0  0
    3.7320    0.1027    0.0000 H   0  0  0  0  0  0  0  0  0  0  0  0
   13.7266    1.4152    0.0000 H   0  0  0  0  0  0  0  0  0  0  0  0
   12.9296    1.4183    0.0000 H   0  0  0  0  0  0  0  0  0  0  0  0
    5.1350   -2.3273    0.0000 H   0  0  0  0  0  0  0  0  0  0  0  0
    2.3291   -2.3273    0.0000 H   0  0  0  0  0  0  0  0  0  0  0  0
    3.7320   -3.1373    0.0000 H   0  0  0  0  0  0  0  0  0  0  0  0
    7.2169    3.1373    0.0000 H   0  0  0  0  0  0  0  0  0  0  0  0
    2.3100    0.0196    0.0000 H   0  0  0  0  0  0  0  0  0  0  0  0
    1.4631   -0.2073    0.0000 H   0  0  0  0  0  0  0  0  0  0  0  0
    1.6900   -1.0543    0.0000 H   0  0  0  0  0  0  0  0  0  0  0  0
    4.0611    2.2927    0.0000 H   0  0  0  0  0  0  0  0  0  0  0  0
   14.7285    0.7464    0.0000 H   0  0  0  0  0  0  0  0  0  0  0  0
  1 10  1  0  0  0  0 
  1 19  1  0  0  0  0 
  2 18  1  0  0  0  0 
  2 45  1  0  0  0  0 
  3  9  1  0  0  0  0 
  3 11  1  0  0  0  0 
  3 30  1  0  0  0  0 
  4 13  1  0  0  0  0 
  4 14  1  0  0  0  0 
  4 33  1  0  0  0  0 
  5 12  2  0  0  0  0 
  5 19  1  0  0  0  0 
  6 14  2  0  0  0  0 
  6 25  1  0  0  0  0 
  7 19  2  0  0  0  0 
  7 23  1  0  0  0  0 
  8 15  1  0  0  0  0 
  8 25  2  0  0  0  0 
  9 10  1  0  0  0  0 
  9 26  1  0  0  0  0 
  9 27  1  0  0  0  0 
 10 28  1  0  0  0  0 
 10 29  1  0  0  0  0 
 11 18  1  0  0  0  0 
 11 31  1  0  0  0  0 
 11 32  1  0  0  0  0 
 12 14  1  0  0  0  0 
 12 15  1  0  0  0  0 
 13 16  1  0  0  0  0 
 13 20  2  0  0  0  0 
 15 23  2  0  0  0  0 
 16 17  2  0  0  0  0 
 16 34  1  0  0  0  0 
 17 21  1  0  0  0  0 
 17 24  1  0  0  0  0 
 18 35  1  0  0  0  0 
 18 36  1  0  0  0  0 
 20 22  1  0  0  0  0 
 20 37  1  0  0  0  0 
 21 22  2  0  0  0  0 
 21 38  1  0  0  0  0 
 22 39  1  0  0  0  0 
 23 40  1  0  0  0  0 
 24 41  1  0  0  0  0 
 24 42  1  0  0  0  0 
 24 43  1  0  0  0  0 
 25 44  1  0  0  0  0 
M  END
> <cdk:Title>
19709223

> <cdk:Remark>
null

> <PUBCHEM_COMPOUND_CID>
19709223

> <PUBCHEM_COMPOUND_CANONICALIZED>
1

> <PUBCHEM_CACTVS_COMPLEXITY>
388

> <PUBCHEM_CACTVS_HBOND_ACCEPTOR>
8

> <PUBCHEM_CACTVS_HBOND_DONOR>
3

> <PUBCHEM_CACTVS_ROTATABLE_BOND>
8

> <PUBCHEM_CACTVS_SUBSKEYS>
AAADceB7sAAAAAAAAAAAAAAAAAAAAAAAAAA8WIAAAAAAAACx/AAAHgAQCAAADAjhngY/8LbIFgCgAzZnZACCgC0xEqAJ2KA4dJiKeOLA2dGdJAhokALYyCcQgAAOAAAAQAAAAAAAAACAAAAAAAAAAAAAAA==

> <PUBCHEM_IUPAC_OPENEYE_NAME>
2-[2-[4-(3-methylanilino)pyrimido[5,4-d]pyrimidin-6-yl]oxyethylamino]ethanol

> <PUBCHEM_IUPAC_CAS_NAME>
2-[2-[[4-(3-methylanilino)-6-pyrimido[5,4-d]pyrimidinyl]oxy]ethylamino]ethanol

> <PUBCHEM_IUPAC_NAME>
2-[2-[4-(3-methylanilino)pyrimido[5,4-d]pyrimidin-6-yl]oxyethylamino]ethanol

> <PUBCHEM_IUPAC_SYSTEMATIC_NAME>
2-[2-[4-[(3-methylphenyl)amino]pyrimido[5,4-d]pyrimidin-6-yl]oxyethylamino]ethanol

> <PUBCHEM_IUPAC_TRADITIONAL_NAME>
2-[2-[4-(m-toluidino)pyrimido[5,4-d]pyrimidin-6-yl]oxyethylamino]ethanol

> <PUBCHEM_IUPAC_INCHI>
InChI=1S/C17H20N6O2/c1-12-3-2-4-13(9-12)22-16-15-14(20-11-21-16)10-19-17(23-15)25-8-6-18-5-7-24/h2-4,9-11,18,24H,5-8H2,1H3,(H,20,21,22)

> <PUBCHEM_IUPAC_INCHIKEY>
PHKVPKSKMNUMMC-UHFFFAOYSA-N

> <PUBCHEM_XLOGP3_AA>
1.3

> <PUBCHEM_EXACT_MASS>
340.164774

> <PUBCHEM_MOLECULAR_FORMULA>
C17H20N6O2

> <PUBCHEM_MOLECULAR_WEIGHT>
340.3797

> <PUBCHEM_OPENEYE_CAN_SMILES>
CC1=CC(=CC=C1)NC2=NC=NC3=CN=C(N=C32)OCCNCCO

> <PUBCHEM_OPENEYE_ISO_SMILES>
CC1=CC(=CC=C1)NC2=NC=NC3=CN=C(N=C32)OCCNCCO

> <PUBCHEM_CACTVS_TPSA>
105

> <PUBCHEM_MONOISOTOPIC_WEIGHT>
340.164774

> <PUBCHEM_TOTAL_CHARGE>
0

> <PUBCHEM_HEAVY_ATOM_COUNT>
25

> <PUBCHEM_ATOM_DEF_STEREO_COUNT>
0

> <PUBCHEM_ATOM_UDEF_STEREO_COUNT>
0

> <PUBCHEM_BOND_DEF_STEREO_COUNT>
0

> <PUBCHEM_BOND_UDEF_STEREO_COUNT>
0

> <PUBCHEM_ISOTOPIC_ATOM_COUNT>
0

> <PUBCHEM_COMPONENT_COUNT>
1

> <PUBCHEM_CACTVS_TAUTO_COUNT>
3

> <PUBCHEM_COORDINATE_TYPE>
1

> <PUBCHEM_BONDANNOTATIONS>
12  14  8

$$$$
