21466910
  CDK     0202151410

 18 18  0  0  0  0  0  0  0  0999 V2000
    6.3301    1.0000    0.0000 Cl  0  0  0  0  0  0  0  0  0  0  0  0
    6.3301   -1.0000    0.0000 Cl  0  0  0  0  0  0  0  0  0  0  0  0
    5.4641    2.5000    0.0000 O   0  0  0  0  0  0  0  0  0  0  0  0
    3.7320   -2.5000    0.0000 O   0  0  0  0  0  0  0  0  0  0  0  0
    3.7320    2.5000    0.0000 O   0  0  0  0  0  0  0  0  0  0  0  0
    5.4641   -2.5000    0.0000 O   0  0  0  0  0  0  0  0  0  0  0  0
    4.5981    2.0000    0.0000 N   0  0  0  0  0  0  0  0  0  0  0  0
    4.5981   -2.0000    0.0000 N   0  0  0  0  0  0  0  0  0  0  0  0
    2.0000    1.5000    0.0000 N   0  0  0  0  0  0  0  0  0  0  0  0
    2.0000   -1.5000    0.0000 N   0  0  0  0  0  0  0  0  0  0  0  0
    4.5981    1.0000    0.0000 C   0  0  0  0  0  0  0  0  0  0  0  0
    4.5981   -1.0000    0.0000 C   0  0  0  0  0  0  0  0  0  0  0  0
    3.7320    0.5000    0.0000 C   0  0  0  0  0  0  0  0  0  0  0  0
    3.7320   -0.5000    0.0000 C   0  0  0  0  0  0  0  0  0  0  0  0
    5.4641    0.5000    0.0000 C   0  0  0  0  0  0  0  0  0  0  0  0
    5.4641   -0.5000    0.0000 C   0  0  0  0  0  0  0  0  0  0  0  0
    2.8660    1.0000    0.0000 C   0  0  0  0  0  0  0  0  0  0  0  0
    2.8660   -1.0000    0.0000 C   0  0  0  0  0  0  0  0  0  0  0  0
  1 15  1  0  0  0  0 
  2 16  1  0  0  0  0 
  3  7  1  0  0  0  0 
  4  8  1  0  0  0  0 
  5  7  2  0  0  0  0 
  6  8  2  0  0  0  0 
  7 11  1  0  0  0  0 
  8 12  1  0  0  0  0 
  9 17  3  0  0  0  0 
 10 18  3  0  0  0  0 
 11 13  1  0  0  0  0 
 11 15  2  0  0  0  0 
 12 14  1  0  0  0  0 
 12 16  2  0  0  0  0 
 13 14  2  0  0  0  0 
 13 17  1  0  0  0  0 
 14 18  1  0  0  0  0 
 15 16  1  0  0  0  0 
M  CHG  1   3  -1
M  CHG  1   4  -1
M  CHG  1   7   1
M  CHG  1   8   1
M  END
> <cdk:Title>
21466910

> <cdk:Remark>
null

> <PUBCHEM_COMPOUND_CID>
21466910

> <PUBCHEM_COMPOUND_CANONICALIZED>
1

> <PUBCHEM_CACTVS_COMPLEXITY>
425

> <PUBCHEM_CACTVS_HBOND_ACCEPTOR>
6

> <PUBCHEM_CACTVS_HBOND_DONOR>
0

> <PUBCHEM_CACTVS_ROTATABLE_BOND>
0

> <PUBCHEM_CACTVS_SUBSKEYS>
AAADcQBzuAAGAAAAAAAAAAAAAAAAAAAAAAAwAAAAAAAAAAABAAAADAIEAAAADAoBGCAAwIAQQACRBgRAQwCiAAAgBAAgikAARooIoCKBkpGAIABggAAIyA8QgIAOhACAYAISABQIAQDABCQAKAAAAAAAAA==

> <PUBCHEM_IUPAC_OPENEYE_NAME>
4,5-dichloro-3,6-dinitro-phthalonitrile

> <PUBCHEM_IUPAC_CAS_NAME>
4,5-dichloro-3,6-dinitrobenzene-1,2-dicarbonitrile

> <PUBCHEM_IUPAC_NAME>
4,5-dichloro-3,6-dinitrobenzene-1,2-dicarbonitrile

> <PUBCHEM_IUPAC_SYSTEMATIC_NAME>
4,5-bis(chloranyl)-3,6-dinitro-benzene-1,2-dicarbonitrile

> <PUBCHEM_IUPAC_TRADITIONAL_NAME>
4,5-dichloro-3,6-dinitro-phthalonitrile

> <PUBCHEM_IUPAC_INCHI>
InChI=1S/C8Cl2N4O4/c9-5-6(10)8(14(17)18)4(2-12)3(1-11)7(5)13(15)16

> <PUBCHEM_IUPAC_INCHIKEY>
HCKKWGKUQBYMSN-UHFFFAOYSA-N

> <PUBCHEM_XLOGP3_AA>
2.3

> <PUBCHEM_EXACT_MASS>
285.92966

> <PUBCHEM_MOLECULAR_FORMULA>
C8Cl2N4O4

> <PUBCHEM_MOLECULAR_WEIGHT>
287.016

> <PUBCHEM_OPENEYE_CAN_SMILES>
C(#N)C1=C(C(=C(C(=C1[N+](=O)[O-])Cl)Cl)[N+](=O)[O-])C#N

> <PUBCHEM_OPENEYE_ISO_SMILES>
C(#N)C1=C(C(=C(C(=C1[N+](=O)[O-])Cl)Cl)[N+](=O)[O-])C#N

> <PUBCHEM_CACTVS_TPSA>
139

> <PUBCHEM_MONOISOTOPIC_WEIGHT>
285.92966

> <PUBCHEM_TOTAL_CHARGE>
0

> <PUBCHEM_HEAVY_ATOM_COUNT>
18

> <PUBCHEM_ATOM_DEF_STEREO_COUNT>
0

> <PUBCHEM_ATOM_UDEF_STEREO_COUNT>
0

> <PUBCHEM_BOND_DEF_STEREO_COUNT>
0

> <PUBCHEM_BOND_UDEF_STEREO_COUNT>
0

> <PUBCHEM_ISOTOPIC_ATOM_COUNT>
0

> <PUBCHEM_COMPONENT_COUNT>
1

> <PUBCHEM_CACTVS_TAUTO_COUNT>
1

> <PUBCHEM_COORDINATE_TYPE>
1

> <PUBCHEM_BONDANNOTATIONS>
11  13  8

$$$$
