62678855
  CDK     0202151413

 21 22  0  0  0  0  0  0  0  0999 V2000
    2.0000   -2.9571    0.0000 Br  0  0  0  0  0  0  0  0  0  0  0  0
    3.7320    0.0429    0.0000 N   0  0  0  0  0  0  0  0  0  0  0  0
    2.9230    0.6307    0.0000 N   0  0  0  0  0  0  0  0  0  0  0  0
    2.6443    2.3907    0.0000 N   0  0  0  0  0  0  0  0  0  0  0  0
    3.7320   -0.9571    0.0000 C   0  0  0  0  0  0  0  0  0  0  0  0
    4.5411    0.6307    0.0000 C   0  0  0  0  0  0  0  0  0  0  0  0
    2.8660   -1.4571    0.0000 C   0  0  0  0  0  0  0  0  0  0  0  0
    4.5981   -1.4571    0.0000 C   0  0  0  0  0  0  0  0  0  0  0  0
    3.2320    1.5817    0.0000 C   0  0  0  0  0  0  0  0  0  0  0  0
    4.2320    1.5817    0.0000 C   0  0  0  0  0  0  0  0  0  0  0  0
    2.8660   -2.4571    0.0000 C   0  0  0  0  0  0  0  0  0  0  0  0
    4.5981   -2.4571    0.0000 C   0  0  0  0  0  0  0  0  0  0  0  0
    3.7320   -2.9571    0.0000 C   0  0  0  0  0  0  0  0  0  0  0  0
    5.1307    0.4391    0.0000 H   0  0  0  0  0  0  0  0  0  0  0  0
    2.3291   -1.1471    0.0000 H   0  0  0  0  0  0  0  0  0  0  0  0
    5.1350   -1.1471    0.0000 H   0  0  0  0  0  0  0  0  0  0  0  0
    4.5965    2.0833    0.0000 H   0  0  0  0  0  0  0  0  0  0  0  0
    5.1350   -2.7671    0.0000 H   0  0  0  0  0  0  0  0  0  0  0  0
    3.7320   -3.5771    0.0000 H   0  0  0  0  0  0  0  0  0  0  0  0
    2.8964    2.9571    0.0000 H   0  0  0  0  0  0  0  0  0  0  0  0
    2.0277    2.3259    0.0000 H   0  0  0  0  0  0  0  0  0  0  0  0
  1 11  1  0  0  0  0 
  2  3  1  0  0  0  0 
  2  5  1  0  0  0  0 
  2  6  1  0  0  0  0 
  3  9  2  0  0  0  0 
  4  9  1  0  0  0  0 
  4 20  1  0  0  0  0 
  4 21  1  0  0  0  0 
  5  7  2  0  0  0  0 
  5  8  1  0  0  0  0 
  6 10  2  0  0  0  0 
  6 14  1  0  0  0  0 
  7 11  1  0  0  0  0 
  7 15  1  0  0  0  0 
  8 12  2  0  0  0  0 
  8 16  1  0  0  0  0 
  9 10  1  0  0  0  0 
 10 17  1  0  0  0  0 
 11 13  2  0  0  0  0 
 12 13  1  0  0  0  0 
 12 18  1  0  0  0  0 
 13 19  1  0  0  0  0 
M  END
> <cdk:Title>
62678855

> <cdk:Remark>
null

> <PUBCHEM_COMPOUND_CID>
62678855

> <PUBCHEM_COMPOUND_CANONICALIZED>
1

> <PUBCHEM_CACTVS_COMPLEXITY>
176

> <PUBCHEM_CACTVS_HBOND_ACCEPTOR>
2

> <PUBCHEM_CACTVS_HBOND_DONOR>
1

> <PUBCHEM_CACTVS_ROTATABLE_BOND>
1

> <PUBCHEM_CACTVS_SUBSKEYS>
AAADccBzAAAAEAAAAAAAAAAAAAAAAWAAAAAwAAAAAAAAAAABwAAAHABYAAABqAjBEgQ98JJIAACiADZnZACSBCIxggQcmCA4ZLgIIOLA0dGEpAhwmADIyhcQAAAAAAAAAAEAAAAAAAAAAgAAAAAAAAAAAA==

> <PUBCHEM_IUPAC_OPENEYE_NAME>
1-(3-bromophenyl)pyrazol-3-amine

> <PUBCHEM_IUPAC_CAS_NAME>
1-(3-bromophenyl)-3-pyrazolamine

> <PUBCHEM_IUPAC_NAME>
1-(3-bromophenyl)pyrazol-3-amine

> <PUBCHEM_IUPAC_SYSTEMATIC_NAME>
1-(3-bromophenyl)pyrazol-3-amine

> <PUBCHEM_IUPAC_TRADITIONAL_NAME>
[1-(3-bromophenyl)pyrazol-3-yl]amine

> <PUBCHEM_IUPAC_INCHI>
InChI=1S/C9H8BrN3/c10-7-2-1-3-8(6-7)13-5-4-9(11)12-13/h1-6H,(H2,11,12)

> <PUBCHEM_IUPAC_INCHIKEY>
YSUZUBFTGPHXTN-UHFFFAOYSA-N

> <PUBCHEM_XLOGP3_AA>
2.2

> <PUBCHEM_EXACT_MASS>
236.990159

> <PUBCHEM_MOLECULAR_FORMULA>
C9H8BrN3

> <PUBCHEM_MOLECULAR_WEIGHT>
238.08392

> <PUBCHEM_OPENEYE_CAN_SMILES>
C1=CC(=CC(=C1)Br)N2C=CC(=N2)N

> <PUBCHEM_OPENEYE_ISO_SMILES>
C1=CC(=CC(=C1)Br)N2C=CC(=N2)N

> <PUBCHEM_CACTVS_TPSA>
43.8

> <PUBCHEM_MONOISOTOPIC_WEIGHT>
236.990159

> <PUBCHEM_TOTAL_CHARGE>
0

> <PUBCHEM_HEAVY_ATOM_COUNT>
13

> <PUBCHEM_ATOM_DEF_STEREO_COUNT>
0

> <PUBCHEM_ATOM_UDEF_STEREO_COUNT>
0

> <PUBCHEM_BOND_DEF_STEREO_COUNT>
0

> <PUBCHEM_BOND_UDEF_STEREO_COUNT>
0

> <PUBCHEM_ISOTOPIC_ATOM_COUNT>
0

> <PUBCHEM_COMPONENT_COUNT>
1

> <PUBCHEM_CACTVS_TAUTO_COUNT>
2

> <PUBCHEM_COORDINATE_TYPE>
1

> <PUBCHEM_BONDANNOTATIONS>
11  13  8

$$$$
