41190365
  CDK     1219141015

 61 64  0  0  0  0  0  0  0  0999 V2000
   15.0506    3.2671    0.0000 Cl  0  0  0  0  0  0  0  0  0  0  0  0
   10.6603   -2.2671    0.0000 F   0  0  0  0  0  0  0  0  0  0  0  0
   11.5484   -0.8116    0.0000 O   0  0  0  0  0  0  0  0  0  0  0  0
    6.3301    0.2329    0.0000 O   0  0  0  0  0  0  0  0  0  0  0  0
    7.1962   -1.2671    0.0000 O   0  0  0  0  0  0  0  0  0  0  0  0
    3.7320   -0.2671    0.0000 O   0  0  0  0  0  0  0  0  0  0  0  0
    8.9282    1.7329    0.0000 N   0  0  0  0  0  0  0  0  0  0  0  0
    8.9282   -0.2671    0.0000 C   0  0  1  0  0  0  0  0  0  0  0  0
    9.7942    0.2329    0.0000 C   0  0  0  0  0  0  0  0  0  0  0  0
   11.5942    1.2537    0.0000 C   0  0  1  0  0  0  0  0  0  0  0  0
    8.0622    0.2329    0.0000 C   0  0  3  0  0  0  0  0  0  0  0  0
   10.6882    1.7676    0.0000 C   0  0  0  0  0  0  0  0  0  0  0  0
    9.7942    1.2329    0.0000 C   0  0  0  0  0  0  0  0  0  0  0  0
   11.5942    0.2121    0.0000 C   0  0  0  0  0  0  0  0  0  0  0  0
   10.6882   -0.3017    0.0000 C   0  0  0  0  0  0  0  0  0  0  0  0
    8.0622    1.2329    0.0000 C   0  0  0  0  0  0  0  0  0  0  0  0
    8.9282   -1.2671    0.0000 C   0  0  0  0  0  0  0  0  0  0  0  0
   12.4583    1.7571    0.0000 C   0  0  0  0  0  0  0  0  0  0  0  0
    7.1962   -0.2671    0.0000 C   0  0  0  0  0  0  0  0  0  0  0  0
    7.1962    1.7329    0.0000 C   0  0  0  0  0  0  0  0  0  0  0  0
    9.7942   -1.7671    0.0000 C   0  0  0  0  0  0  0  0  0  0  0  0
    8.0622   -1.7671    0.0000 C   0  0  0  0  0  0  0  0  0  0  0  0
   12.4545    2.7571    0.0000 C   0  0  0  0  0  0  0  0  0  0  0  0
   13.3263    1.2604    0.0000 C   0  0  0  0  0  0  0  0  0  0  0  0
    9.7942   -2.7671    0.0000 C   0  0  0  0  0  0  0  0  0  0  0  0
    8.0622   -2.7671    0.0000 C   0  0  0  0  0  0  0  0  0  0  0  0
   13.3186    3.2604    0.0000 C   0  0  0  0  0  0  0  0  0  0  0  0
   14.1904    1.7638    0.0000 C   0  0  0  0  0  0  0  0  0  0  0  0
    8.9282   -3.2671    0.0000 C   0  0  0  0  0  0  0  0  0  0  0  0
   14.1865    2.7637    0.0000 C   0  0  0  0  0  0  0  0  0  0  0  0
    5.4641   -0.2671    0.0000 C   0  0  0  0  0  0  0  0  0  0  0  0
    4.5981    0.2329    0.0000 C   0  0  0  0  0  0  0  0  0  0  0  0
    2.8660    0.2329    0.0000 C   0  0  0  0  0  0  0  0  0  0  0  0
    2.0000   -0.2671    0.0000 C   0  0  0  0  0  0  0  0  0  0  0  0
    8.3913   -0.5771    0.0000 H   0  0  0  0  0  0  0  0  0  0  0  0
   11.5907    1.8737    0.0000 H   0  0  0  0  0  0  0  0  0  0  0  0
    8.0622   -0.3871    0.0000 H   0  0  0  0  0  0  0  0  0  0  0  0
   11.0818    2.2466    0.0000 H   0  0  0  0  0  0  0  0  0  0  0  0
   10.2836    2.2374    0.0000 H   0  0  0  0  0  0  0  0  0  0  0  0
   11.8033   -0.3716    0.0000 H   0  0  0  0  0  0  0  0  0  0  0  0
   12.2051    0.3182    0.0000 H   0  0  0  0  0  0  0  0  0  0  0  0
    7.5062    2.2699    0.0000 H   0  0  0  0  0  0  0  0  0  0  0  0
    6.6592    2.0429    0.0000 H   0  0  0  0  0  0  0  0  0  0  0  0
    6.8862    1.1960    0.0000 H   0  0  0  0  0  0  0  0  0  0  0  0
    7.5252   -1.4571    0.0000 H   0  0  0  0  0  0  0  0  0  0  0  0
   11.9163    3.0650    0.0000 H   0  0  0  0  0  0  0  0  0  0  0  0
   13.3287    0.6404    0.0000 H   0  0  0  0  0  0  0  0  0  0  0  0
   10.3312   -3.0771    0.0000 H   0  0  0  0  0  0  0  0  0  0  0  0
    7.5252   -3.0771    0.0000 H   0  0  0  0  0  0  0  0  0  0  0  0
   13.3162    3.8804    0.0000 H   0  0  0  0  0  0  0  0  0  0  0  0
   14.7285    1.4558    0.0000 H   0  0  0  0  0  0  0  0  0  0  0  0
    8.9282   -3.8871    0.0000 H   0  0  0  0  0  0  0  0  0  0  0  0
    5.0656   -0.7420    0.0000 H   0  0  0  0  0  0  0  0  0  0  0  0
    5.8626   -0.7420    0.0000 H   0  0  0  0  0  0  0  0  0  0  0  0
    4.9966    0.7079    0.0000 H   0  0  0  0  0  0  0  0  0  0  0  0
    4.1996    0.7079    0.0000 H   0  0  0  0  0  0  0  0  0  0  0  0
    3.2646    0.7079    0.0000 H   0  0  0  0  0  0  0  0  0  0  0  0
    2.4675    0.7079    0.0000 H   0  0  0  0  0  0  0  0  0  0  0  0
    1.6900    0.2699    0.0000 H   0  0  0  0  0  0  0  0  0  0  0  0
    1.4631   -0.5771    0.0000 H   0  0  0  0  0  0  0  0  0  0  0  0
    2.3100   -0.8040    0.0000 H   0  0  0  0  0  0  0  0  0  0  0  0
  1 30  1  0  0  0  0 
  2 21  1  0  0  0  0 
  3 15  2  0  0  0  0 
  4 19  1  0  0  0  0 
  4 31  1  0  0  0  0 
  5 19  2  0  0  0  0 
  6 32  1  0  0  0  0 
  6 33  1  0  0  0  0 
  7 13  1  0  0  0  0 
  7 16  2  0  0  0  0 
  8  9  1  0  0  0  0 
  8 11  1  0  0  0  0 
  8 17  1  6  0  0  0 
  8 35  1  0  0  0  0 
  9 13  2  0  0  0  0 
  9 15  1  0  0  0  0 
 10 12  1  0  0  0  0 
 10 14  1  0  0  0  0 
 10 18  1  6  0  0  0 
 10 36  1  0  0  0  0 
 11 16  1  0  0  0  0 
 11 19  1  0  0  0  0 
 11 37  1  0  0  0  0 
 12 13  1  0  0  0  0 
 12 38  1  0  0  0  0 
 12 39  1  0  0  0  0 
 14 15  1  0  0  0  0 
 14 40  1  0  0  0  0 
 14 41  1  0  0  0  0 
 16 20  1  0  0  0  0 
 17 21  1  0  0  0  0 
 17 22  2  0  0  0  0 
 18 23  2  0  0  0  0 
 18 24  1  0  0  0  0 
 20 42  1  0  0  0  0 
 20 43  1  0  0  0  0 
 20 44  1  0  0  0  0 
 21 25  2  0  0  0  0 
 22 26  1  0  0  0  0 
 22 45  1  0  0  0  0 
 23 27  1  0  0  0  0 
 23 46  1  0  0  0  0 
 24 28  2  0  0  0  0 
 24 47  1  0  0  0  0 
 25 29  1  0  0  0  0 
 25 48  1  0  0  0  0 
 26 29  2  0  0  0  0 
 26 49  1  0  0  0  0 
 27 30  2  0  0  0  0 
 27 50  1  0  0  0  0 
 28 30  1  0  0  0  0 
 28 51  1  0  0  0  0 
 29 52  1  0  0  0  0 
 31 32  1  0  0  0  0 
 31 53  1  0  0  0  0 
 31 54  1  0  0  0  0 
 32 55  1  0  0  0  0 
 32 56  1  0  0  0  0 
 33 34  1  0  0  0  0 
 33 57  1  0  0  0  0 
 33 58  1  0  0  0  0 
 34 59  1  0  0  0  0 
 34 60  1  0  0  0  0 
 34 61  1  0  0  0  0 
M  END
> <cdk:Title>
41190365

> <cdk:Remark>
null

> <PUBCHEM_COMPOUND_CID>
41190365

> <PUBCHEM_COMPOUND_CANONICALIZED>
1

> <PUBCHEM_CACTVS_COMPLEXITY>
819

> <PUBCHEM_CACTVS_HBOND_ACCEPTOR>
6

> <PUBCHEM_CACTVS_HBOND_DONOR>
0

> <PUBCHEM_CACTVS_ROTATABLE_BOND>
8

> <PUBCHEM_CACTVS_SUBSKEYS>
AAADceB6OQAEAAAAAAAAAAAAAAAAAAAAAAAwYIEAAAAAAACBQAAAHwIAAAAADQ6hmCoyCIIABACoA6TyTAACAAAgBQAIiAEwAsgJIDKBkxCCIAAkgAAKiUeYz+CuhAAAAAAAAAAIAAAAAAAAAAAAAAAAAA==

> <PUBCHEM_IUPAC_OPENEYE_NAME>
2-ethoxyethyl (4R,7S)-7-(4-chlorophenyl)-4-(2-fluorophenyl)-2-methyl-5-oxo-4,6,7,8-tetrahydro-3H-quinoline-3-carboxylate

> <PUBCHEM_IUPAC_CAS_NAME>
(4R,7S)-7-(4-chlorophenyl)-4-(2-fluorophenyl)-2-methyl-5-oxo-4,6,7,8-tetrahydro-3H-quinoline-3-carboxylic acid 2-ethoxyethyl ester

> <PUBCHEM_IUPAC_NAME>
2-ethoxyethyl (4R,7S)-7-(4-chlorophenyl)-4-(2-fluorophenyl)-2-methyl-5-oxo-4,6,7,8-tetrahydro-3H-quinoline-3-carboxylate

> <PUBCHEM_IUPAC_SYSTEMATIC_NAME>
2-ethoxyethyl (4R,7S)-7-(4-chlorophenyl)-4-(2-fluorophenyl)-2-methyl-5-oxidanylidene-4,6,7,8-tetrahydro-3H-quinoline-3-carboxylate

> <PUBCHEM_IUPAC_TRADITIONAL_NAME>
(4R,7S)-7-(4-chlorophenyl)-4-(2-fluorophenyl)-5-keto-2-methyl-4,6,7,8-tetrahydro-3H-quinoline-3-carboxylic acid 2-ethoxyethyl ester

> <PUBCHEM_IUPAC_INCHI>
InChI=1S/C27H27ClFNO4/c1-3-33-12-13-34-27(32)24-16(2)30-22-14-18(17-8-10-19(28)11-9-17)15-23(31)26(22)25(24)20-6-4-5-7-21(20)29/h4-11,18,24-25H,3,12-15H2,1-2H3/t18-,24?,25+/m0/s1

> <PUBCHEM_IUPAC_INCHIKEY>
NOAPVSGJCUJRBG-KKTHHDDRSA-N

> <PUBCHEM_XLOGP3_AA>
4.3

> <PUBCHEM_EXACT_MASS>
483.161264

> <PUBCHEM_MOLECULAR_FORMULA>
C27H27ClFNO4

> <PUBCHEM_MOLECULAR_WEIGHT>
483.958983

> <PUBCHEM_OPENEYE_CAN_SMILES>
CCOCCOC(=O)C1C(C2=C(CC(CC2=O)C3=CC=C(C=C3)Cl)N=C1C)C4=CC=CC=C4F

> <PUBCHEM_OPENEYE_ISO_SMILES>
CCOCCOC(=O)C1[C@H](C2=C(C[C@@H](CC2=O)C3=CC=C(C=C3)Cl)N=C1C)C4=CC=CC=C4F

> <PUBCHEM_CACTVS_TPSA>
65

> <PUBCHEM_MONOISOTOPIC_WEIGHT>
483.161264

> <PUBCHEM_TOTAL_CHARGE>
0

> <PUBCHEM_HEAVY_ATOM_COUNT>
34

> <PUBCHEM_ATOM_DEF_STEREO_COUNT>
2

> <PUBCHEM_ATOM_UDEF_STEREO_COUNT>
1

> <PUBCHEM_BOND_DEF_STEREO_COUNT>
0

> <PUBCHEM_BOND_UDEF_STEREO_COUNT>
0

> <PUBCHEM_ISOTOPIC_ATOM_COUNT>
0

> <PUBCHEM_COMPONENT_COUNT>
1

> <PUBCHEM_CACTVS_TAUTO_COUNT>
5

> <PUBCHEM_COORDINATE_TYPE>
1

> <PUBCHEM_BONDANNOTATIONS>
10  18  6

$$$$
