66851793
  CDK     1219141015

 59 62  0  0  0  0  0  0  0  0999 V2000
   12.4583    1.5287    0.0000 F   0  0  0  0  0  0  0  0  0  0  0  0
    2.0000    1.5529    0.0000 F   0  0  0  0  0  0  0  0  0  0  0  0
   10.6766    0.5183    0.0000 O   0  0  0  0  0  0  0  0  0  0  0  0
    8.9282    0.5529    0.0000 O   0  0  0  0  0  0  0  0  0  0  0  0
    7.1962    4.5529    0.0000 O   0  0  0  0  0  0  0  0  0  0  0  0
    2.0000    3.5529    0.0000 O   0  0  0  0  0  0  0  0  0  0  0  0
   14.2464   -4.5529    0.0000 N   0  0  0  0  0  0  0  0  0  0  0  0
    8.9282    3.5529    0.0000 N   0  0  0  0  0  0  0  0  0  0  0  0
    8.0622    2.0529    0.0000 N   0  0  0  0  0  0  0  0  0  0  0  0
    6.3301    3.0529    0.0000 N   0  0  0  0  0  0  0  0  0  0  0  0
   12.3854   -1.5016    0.0000 C   0  0  3  0  0  0  0  0  0  0  0  0
   12.4784   -2.4973    0.0000 C   0  0  0  0  0  0  0  0  0  0  0  0
   13.3036   -1.1055    0.0000 C   0  0  0  0  0  0  0  0  0  0  0  0
   13.4541   -2.7165    0.0000 C   0  0  3  0  0  0  0  0  0  0  0  0
   13.9641   -1.8563    0.0000 C   0  0  0  0  0  0  0  0  0  0  0  0
   11.5252   -0.9916    0.0000 C   0  0  0  0  0  0  0  0  0  0  0  0
   11.5368    0.0083    0.0000 C   0  0  0  0  0  0  0  0  0  0  0  0
   13.8503   -3.6347    0.0000 C   0  0  0  0  0  0  0  0  0  0  0  0
   10.6882    1.5182    0.0000 C   0  0  0  0  0  0  0  0  0  0  0  0
    9.7942    2.0529    0.0000 C   0  0  0  0  0  0  0  0  0  0  0  0
   11.5942    2.0320    0.0000 C   0  0  0  0  0  0  0  0  0  0  0  0
    9.7942    3.0529    0.0000 C   0  0  0  0  0  0  0  0  0  0  0  0
   11.5942    3.0737    0.0000 C   0  0  0  0  0  0  0  0  0  0  0  0
    8.9282    1.5529    0.0000 C   0  0  0  0  0  0  0  0  0  0  0  0
   10.6882    3.5875    0.0000 C   0  0  0  0  0  0  0  0  0  0  0  0
    8.0622    3.0529    0.0000 C   0  0  0  0  0  0  0  0  0  0  0  0
    7.1962    3.5529    0.0000 C   0  0  0  0  0  0  0  0  0  0  0  0
    5.4641    3.5529    0.0000 C   0  0  0  0  0  0  0  0  0  0  0  0
    4.5981    3.0529    0.0000 C   0  0  0  0  0  0  0  0  0  0  0  0
    3.7320    3.5529    0.0000 C   0  0  0  0  0  0  0  0  0  0  0  0
    4.5981    2.0529    0.0000 C   0  0  0  0  0  0  0  0  0  0  0  0
    2.8660    3.0529    0.0000 C   0  0  0  0  0  0  0  0  0  0  0  0
    3.7320    1.5529    0.0000 C   0  0  0  0  0  0  0  0  0  0  0  0
    2.8660    2.0529    0.0000 C   0  0  0  0  0  0  0  0  0  0  0  0
    2.0000    4.5529    0.0000 C   0  0  0  0  0  0  0  0  0  0  0  0
   12.4250   -0.8829    0.0000 H   0  0  0  0  0  0  0  0  0  0  0  0
   11.8585   -2.4901    0.0000 H   0  0  0  0  0  0  0  0  0  0  0  0
   12.4065   -3.1131    0.0000 H   0  0  0  0  0  0  0  0  0  0  0  0
   13.8094   -0.7469    0.0000 H   0  0  0  0  0  0  0  0  0  0  0  0
   12.9998   -0.5650    0.0000 H   0  0  0  0  0  0  0  0  0  0  0  0
   13.0584   -3.1938    0.0000 H   0  0  0  0  0  0  0  0  0  0  0  0
   14.4614   -2.2265    0.0000 H   0  0  0  0  0  0  0  0  0  0  0  0
   14.3843   -1.4004    0.0000 H   0  0  0  0  0  0  0  0  0  0  0  0
   10.9159   -0.8769    0.0000 H   0  0  0  0  0  0  0  0  0  0  0  0
   11.3065   -1.5718    0.0000 H   0  0  0  0  0  0  0  0  0  0  0  0
   12.1461   -0.1064    0.0000 H   0  0  0  0  0  0  0  0  0  0  0  0
   11.7556    0.5884    0.0000 H   0  0  0  0  0  0  0  0  0  0  0  0
   12.1300    3.3858    0.0000 H   0  0  0  0  0  0  0  0  0  0  0  0
   10.6810    4.2075    0.0000 H   0  0  0  0  0  0  0  0  0  0  0  0
    8.9282    4.1729    0.0000 H   0  0  0  0  0  0  0  0  0  0  0  0
    5.8626    4.0278    0.0000 H   0  0  0  0  0  0  0  0  0  0  0  0
    5.0656    4.0278    0.0000 H   0  0  0  0  0  0  0  0  0  0  0  0
    6.3301    2.4329    0.0000 H   0  0  0  0  0  0  0  0  0  0  0  0
    3.7320    4.1729    0.0000 H   0  0  0  0  0  0  0  0  0  0  0  0
    5.1350    1.7429    0.0000 H   0  0  0  0  0  0  0  0  0  0  0  0
    3.7320    0.9329    0.0000 H   0  0  0  0  0  0  0  0  0  0  0  0
    2.6200    4.5529    0.0000 H   0  0  0  0  0  0  0  0  0  0  0  0
    2.0000    5.1729    0.0000 H   0  0  0  0  0  0  0  0  0  0  0  0
    1.3800    4.5529    0.0000 H   0  0  0  0  0  0  0  0  0  0  0  0
  1 21  1  0  0  0  0 
  2 34  1  0  0  0  0 
  3 17  1  0  0  0  0 
  3 19  1  0  0  0  0 
  4 24  2  0  0  0  0 
  5 27  2  0  0  0  0 
  6 32  1  0  0  0  0 
  6 35  1  0  0  0  0 
  7 18  3  0  0  0  0 
  8 22  1  0  0  0  0 
  8 26  1  0  0  0  0 
  8 50  1  0  0  0  0 
  9 24  1  0  0  0  0 
  9 26  2  0  0  0  0 
 10 27  1  0  0  0  0 
 10 28  1  0  0  0  0 
 10 53  1  0  0  0  0 
 11 12  1  0  0  0  0 
 11 13  1  0  0  0  0 
 11 16  1  0  0  0  0 
 11 36  1  0  0  0  0 
 12 14  1  0  0  0  0 
 12 37  1  0  0  0  0 
 12 38  1  0  0  0  0 
 13 15  1  0  0  0  0 
 13 39  1  0  0  0  0 
 13 40  1  0  0  0  0 
 14 15  1  0  0  0  0 
 14 18  1  0  0  0  0 
 14 41  1  0  0  0  0 
 15 42  1  0  0  0  0 
 15 43  1  0  0  0  0 
 16 17  1  0  0  0  0 
 16 44  1  0  0  0  0 
 16 45  1  0  0  0  0 
 17 46  1  0  0  0  0 
 17 47  1  0  0  0  0 
 19 20  1  0  0  0  0 
 19 21  2  0  0  0  0 
 20 22  2  0  0  0  0 
 20 24  1  0  0  0  0 
 21 23  1  0  0  0  0 
 22 25  1  0  0  0  0 
 23 25  2  0  0  0  0 
 23 48  1  0  0  0  0 
 25 49  1  0  0  0  0 
 26 27  1  0  0  0  0 
 28 29  1  0  0  0  0 
 28 51  1  0  0  0  0 
 28 52  1  0  0  0  0 
 29 30  2  0  0  0  0 
 29 31  1  0  0  0  0 
 30 32  1  0  0  0  0 
 30 54  1  0  0  0  0 
 31 33  2  0  0  0  0 
 31 55  1  0  0  0  0 
 32 34  2  0  0  0  0 
 33 34  1  0  0  0  0 
 33 56  1  0  0  0  0 
 35 57  1  0  0  0  0 
 35 58  1  0  0  0  0 
 35 59  1  0  0  0  0 
M  END
> <cdk:Title>
66851793

> <cdk:Remark>
null

> <PUBCHEM_COMPOUND_CID>
66851793

> <PUBCHEM_COMPOUND_CANONICALIZED>
1

> <PUBCHEM_CACTVS_COMPLEXITY>
862

> <PUBCHEM_CACTVS_HBOND_ACCEPTOR>
7

> <PUBCHEM_CACTVS_HBOND_DONOR>
2

> <PUBCHEM_CACTVS_ROTATABLE_BOND>
8

> <PUBCHEM_CACTVS_SUBSKEYS>
AAADceB7uYAAAAAAAAAAAAAAAAAAAYAAAAAwYIAAAAAAAACBQAAAHwAQAAAADQzhmA4zxoLABAC4BidydACCCAElIgAJiIGObMgM5j7E/buWOejm9hnI6U+42HOOAAABAgAKAAAAAAIEABQAAQAAAAAAAA==

> <PUBCHEM_IUPAC_OPENEYE_NAME>
5-[2-(3-cyanocyclopentyl)ethoxy]-6-fluoro-N-[(4-fluoro-3-methoxy-phenyl)methyl]-4-oxo-1H-quinazoline-2-carboxamide

> <PUBCHEM_IUPAC_CAS_NAME>
5-[2-(3-cyanocyclopentyl)ethoxy]-6-fluoro-N-[(4-fluoro-3-methoxyphenyl)methyl]-4-oxo-1H-quinazoline-2-carboxamide

> <PUBCHEM_IUPAC_NAME>
5-[2-(3-cyanocyclopentyl)ethoxy]-6-fluoro-N-[(4-fluoro-3-methoxyphenyl)methyl]-4-oxo-1H-quinazoline-2-carboxamide

> <PUBCHEM_IUPAC_SYSTEMATIC_NAME>
5-[2-(3-cyanocyclopentyl)ethoxy]-6-fluoranyl-N-[(4-fluoranyl-3-methoxy-phenyl)methyl]-4-oxidanylidene-1H-quinazoline-2-carboxamide

> <PUBCHEM_IUPAC_TRADITIONAL_NAME>
5-[2-(3-cyanocyclopentyl)ethoxy]-6-fluoro-N-(4-fluoro-3-methoxy-benzyl)-4-keto-1H-quinazoline-2-carboxamide

> <PUBCHEM_IUPAC_INCHI>
InChI=1S/C25H24F2N4O4/c1-34-20-11-16(4-5-17(20)26)13-29-25(33)23-30-19-7-6-18(27)22(21(19)24(32)31-23)35-9-8-14-2-3-15(10-14)12-28/h4-7,11,14-15H,2-3,8-10,13H2,1H3,(H,29,33)(H,30,31,32)

> <PUBCHEM_IUPAC_INCHIKEY>
ZFBHTXVALIZKBD-UHFFFAOYSA-N

> <PUBCHEM_XLOGP3_AA>
3.4

> <PUBCHEM_EXACT_MASS>
482.176562

> <PUBCHEM_MOLECULAR_FORMULA>
C25H24F2N4O4

> <PUBCHEM_MOLECULAR_WEIGHT>
482.479266

> <PUBCHEM_OPENEYE_CAN_SMILES>
COC1=C(C=CC(=C1)CNC(=O)C2=NC(=O)C3=C(N2)C=CC(=C3OCCC4CCC(C4)C#N)F)F

> <PUBCHEM_OPENEYE_ISO_SMILES>
COC1=C(C=CC(=C1)CNC(=O)C2=NC(=O)C3=C(N2)C=CC(=C3OCCC4CCC(C4)C#N)F)F

> <PUBCHEM_CACTVS_TPSA>
113

> <PUBCHEM_MONOISOTOPIC_WEIGHT>
482.176562

> <PUBCHEM_TOTAL_CHARGE>
0

> <PUBCHEM_HEAVY_ATOM_COUNT>
35

> <PUBCHEM_ATOM_DEF_STEREO_COUNT>
0

> <PUBCHEM_ATOM_UDEF_STEREO_COUNT>
2

> <PUBCHEM_BOND_DEF_STEREO_COUNT>
0

> <PUBCHEM_BOND_UDEF_STEREO_COUNT>
0

> <PUBCHEM_ISOTOPIC_ATOM_COUNT>
0

> <PUBCHEM_COMPONENT_COUNT>
1

> <PUBCHEM_CACTVS_TAUTO_COUNT>
6

> <PUBCHEM_COORDINATE_TYPE>
1

> <PUBCHEM_BONDANNOTATIONS>
11  16  3

$$$$
