37545929
  CDK     0224152114

 52 54  0  0  0  0  0  0  0  0999 V2000
    8.9282   -1.2673    0.0000 O   0  0  0  0  0  0  0  0  0  0  0  0
    4.5981    0.2327    0.0000 O   0  0  0  0  0  0  0  0  0  0  0  0
    6.3301    1.2327    0.0000 O   0  0  0  0  0  0  0  0  0  0  0  0
    9.7942    0.2327    0.0000 N   0  0  0  0  0  0  0  0  0  0  0  0
    7.1962   -0.2673    0.0000 N   0  0  0  0  0  0  0  0  0  0  0  0
   10.6603   -0.2673    0.0000 C   0  0  1  0  0  0  0  0  0  0  0  0
   11.5263    0.2327    0.0000 C   0  0  0  0  0  0  0  0  0  0  0  0
    8.0622    0.2327    0.0000 C   0  0  1  0  0  0  0  0  0  0  0  0
   12.3923   -0.2673    0.0000 C   0  0  0  0  0  0  0  0  0  0  0  0
   10.6603   -1.2673    0.0000 C   0  0  0  0  0  0  0  0  0  0  0  0
   13.2583    0.2327    0.0000 C   0  0  0  0  0  0  0  0  0  0  0  0
   11.5263    1.2327    0.0000 C   0  0  0  0  0  0  0  0  0  0  0  0
    8.9282   -0.2673    0.0000 C   0  0  0  0  0  0  0  0  0  0  0  0
   13.2583    1.2327    0.0000 C   0  0  0  0  0  0  0  0  0  0  0  0
   12.3923    1.7327    0.0000 C   0  0  0  0  0  0  0  0  0  0  0  0
    8.0622    1.2327    0.0000 C   0  0  0  0  0  0  0  0  0  0  0  0
   14.1523   -0.3020    0.0000 C   0  0  0  0  0  0  0  0  0  0  0  0
   14.1523    1.7673    0.0000 C   0  0  0  0  0  0  0  0  0  0  0  0
   15.0583    0.2119    0.0000 C   0  0  0  0  0  0  0  0  0  0  0  0
   15.0583    1.2535    0.0000 C   0  0  0  0  0  0  0  0  0  0  0  0
    6.3301    0.2327    0.0000 C   0  0  0  0  0  0  0  0  0  0  0  0
    5.4641   -0.2673    0.0000 C   0  0  0  0  0  0  0  0  0  0  0  0
    3.7321   -0.2673    0.0000 C   0  0  0  0  0  0  0  0  0  0  0  0
    3.7321   -1.2673    0.0000 C   0  0  0  0  0  0  0  0  0  0  0  0
    2.8660    0.2327    0.0000 C   0  0  0  0  0  0  0  0  0  0  0  0
    2.8660   -1.7673    0.0000 C   0  0  0  0  0  0  0  0  0  0  0  0
    2.0000   -0.2673    0.0000 C   0  0  0  0  0  0  0  0  0  0  0  0
    2.0000   -1.2673    0.0000 C   0  0  0  0  0  0  0  0  0  0  0  0
   10.6603    0.3527    0.0000 H   0  0  0  0  0  0  0  0  0  0  0  0
    9.7942    0.8527    0.0000 H   0  0  0  0  0  0  0  0  0  0  0  0
    8.0622   -0.3873    0.0000 H   0  0  0  0  0  0  0  0  0  0  0  0
   12.3923   -0.8873    0.0000 H   0  0  0  0  0  0  0  0  0  0  0  0
   10.0403   -1.2673    0.0000 H   0  0  0  0  0  0  0  0  0  0  0  0
   10.6603   -1.8873    0.0000 H   0  0  0  0  0  0  0  0  0  0  0  0
   11.2803   -1.2673    0.0000 H   0  0  0  0  0  0  0  0  0  0  0  0
   10.9893    1.5427    0.0000 H   0  0  0  0  0  0  0  0  0  0  0  0
   12.3923    2.3527    0.0000 H   0  0  0  0  0  0  0  0  0  0  0  0
    8.6822    1.2327    0.0000 H   0  0  0  0  0  0  0  0  0  0  0  0
    8.0622    1.8527    0.0000 H   0  0  0  0  0  0  0  0  0  0  0  0
    7.4422    1.2327    0.0000 H   0  0  0  0  0  0  0  0  0  0  0  0
    7.1962   -0.8873    0.0000 H   0  0  0  0  0  0  0  0  0  0  0  0
   14.1451   -0.9220    0.0000 H   0  0  0  0  0  0  0  0  0  0  0  0
   14.1451    2.3873    0.0000 H   0  0  0  0  0  0  0  0  0  0  0  0
   15.5941   -0.1002    0.0000 H   0  0  0  0  0  0  0  0  0  0  0  0
   15.5941    1.5656    0.0000 H   0  0  0  0  0  0  0  0  0  0  0  0
    5.0656   -0.7423    0.0000 H   0  0  0  0  0  0  0  0  0  0  0  0
    5.8626   -0.7423    0.0000 H   0  0  0  0  0  0  0  0  0  0  0  0
    4.2690   -1.5773    0.0000 H   0  0  0  0  0  0  0  0  0  0  0  0
    2.8660    0.8527    0.0000 H   0  0  0  0  0  0  0  0  0  0  0  0
    2.8660   -2.3873    0.0000 H   0  0  0  0  0  0  0  0  0  0  0  0
    1.4631    0.0427    0.0000 H   0  0  0  0  0  0  0  0  0  0  0  0
    1.4631   -1.5773    0.0000 H   0  0  0  0  0  0  0  0  0  0  0  0
  1 13  2  0  0  0  0 
  2 22  1  0  0  0  0 
  2 23  1  0  0  0  0 
  3 21  2  0  0  0  0 
  6  4  1  1  0  0  0 
  4 13  1  0  0  0  0 
  4 30  1  0  0  0  0 
  8  5  1  6  0  0  0 
  5 21  1  0  0  0  0 
  5 41  1  0  0  0  0 
  6  7  1  0  0  0  0 
  6 10  1  0  0  0  0 
  6 29  1  0  0  0  0 
  7  9  2  0  0  0  0 
  7 12  1  0  0  0  0 
  8 13  1  0  0  0  0 
  8 16  1  0  0  0  0 
  8 31  1  0  0  0  0 
  9 11  1  0  0  0  0 
  9 32  1  0  0  0  0 
 10 33  1  0  0  0  0 
 10 34  1  0  0  0  0 
 10 35  1  0  0  0  0 
 11 14  1  0  0  0  0 
 11 17  2  0  0  0  0 
 12 15  2  0  0  0  0 
 12 36  1  0  0  0  0 
 14 15  1  0  0  0  0 
 14 18  2  0  0  0  0 
 15 37  1  0  0  0  0 
 16 38  1  0  0  0  0 
 16 39  1  0  0  0  0 
 16 40  1  0  0  0  0 
 17 19  1  0  0  0  0 
 17 42  1  0  0  0  0 
 18 20  1  0  0  0  0 
 18 43  1  0  0  0  0 
 19 20  2  0  0  0  0 
 19 44  1  0  0  0  0 
 20 45  1  0  0  0  0 
 21 22  1  0  0  0  0 
 22 46  1  0  0  0  0 
 22 47  1  0  0  0  0 
 23 24  2  0  0  0  0 
 23 25  1  0  0  0  0 
 24 26  1  0  0  0  0 
 24 48  1  0  0  0  0 
 25 27  2  0  0  0  0 
 25 49  1  0  0  0  0 
 26 28  2  0  0  0  0 
 26 50  1  0  0  0  0 
 27 28  1  0  0  0  0 
 27 51  1  0  0  0  0 
 28 52  1  0  0  0  0 
M  END
> <cdk:Title>
37545929

> <cdk:Remark>
null

> <PUBCHEM_COMPOUND_CID>
37545929

> <PUBCHEM_COMPOUND_CANONICALIZED>
1

> <PUBCHEM_CACTVS_COMPLEXITY>
518

> <PUBCHEM_CACTVS_HBOND_ACCEPTOR>
3

> <PUBCHEM_CACTVS_HBOND_DONOR>
2

> <PUBCHEM_CACTVS_ROTATABLE_BOND>
7

> <PUBCHEM_CACTVS_SUBSKEYS>
AAADceB7MAAAAAAAAAAAAAAAAAAAAAAAAAAwYMAAAAAAAADBVAAAHgAQAAAADCzhmAYyBsLABACIAiFSEAKCCAAgIAAIiIHODIgOZiKEsT+XOCjk1hGYqAeQwMAOwAACAAAQAACAAAQAACAAAAAAAAAAAA==

> <PUBCHEM_IUPAC_OPENEYE_NAME>
(2R)-N-[(1R)-1-(2-naphthyl)ethyl]-2-[(2-phenoxyacetyl)amino]propanamide

> <PUBCHEM_IUPAC_CAS_NAME>
(2R)-N-[(1R)-1-(2-naphthalenyl)ethyl]-2-[(1-oxo-2-phenoxyethyl)amino]propanamide

> <PUBCHEM_IUPAC_NAME>
(2R)-N-[(1R)-1-naphthalen-2-ylethyl]-2-[(2-phenoxyacetyl)amino]propanamide

> <PUBCHEM_IUPAC_SYSTEMATIC_NAME>
(2R)-N-[(1R)-1-naphthalen-2-ylethyl]-2-(2-phenoxyethanoylamino)propanamide

> <PUBCHEM_IUPAC_TRADITIONAL_NAME>
(2R)-N-[(1R)-1-(2-naphthyl)ethyl]-2-[(2-phenoxyacetyl)amino]propionamide

> <PUBCHEM_IUPAC_INCHI>
InChI=1S/C23H24N2O3/c1-16(19-13-12-18-8-6-7-9-20(18)14-19)25-23(27)17(2)24-22(26)15-28-21-10-4-3-5-11-21/h3-14,16-17H,15H2,1-2H3,(H,24,26)(H,25,27)/t16-,17-/m1/s1

> <PUBCHEM_IUPAC_INCHIKEY>
DLZGHUXXZZLRAC-IAGOWNOFSA-N

> <PUBCHEM_XLOGP3_AA>
4.1

> <PUBCHEM_EXACT_MASS>
376.178693

> <PUBCHEM_MOLECULAR_FORMULA>
C23H24N2O3

> <PUBCHEM_MOLECULAR_WEIGHT>
376.44826

> <PUBCHEM_OPENEYE_CAN_SMILES>
CC(C1=CC2=CC=CC=C2C=C1)NC(=O)C(C)NC(=O)COC3=CC=CC=C3

> <PUBCHEM_OPENEYE_ISO_SMILES>
C[C@H](C1=CC2=CC=CC=C2C=C1)NC(=O)[C@@H](C)NC(=O)COC3=CC=CC=C3

> <PUBCHEM_CACTVS_TPSA>
67.4

> <PUBCHEM_MONOISOTOPIC_WEIGHT>
376.178693

> <PUBCHEM_TOTAL_CHARGE>
0

> <PUBCHEM_HEAVY_ATOM_COUNT>
28

> <PUBCHEM_ATOM_DEF_STEREO_COUNT>
2

> <PUBCHEM_ATOM_UDEF_STEREO_COUNT>
0

> <PUBCHEM_BOND_DEF_STEREO_COUNT>
0

> <PUBCHEM_BOND_UDEF_STEREO_COUNT>
0

> <PUBCHEM_ISOTOPIC_ATOM_COUNT>
0

> <PUBCHEM_COMPONENT_COUNT>
1

> <PUBCHEM_CACTVS_TAUTO_COUNT>
4

> <PUBCHEM_COORDINATE_TYPE>
1

> <PUBCHEM_BONDANNOTATIONS>
11  14  8

$$$$
