40399283
  CDK     0202151413

 45 46  0  0  0  0  0  0  0  0999 V2000
    5.4641    2.2500    0.0000 S   0  0  0  0  0  0  0  0  0  0  0  0
    7.1962   -3.7500    0.0000 S   0  0  0  0  0  0  0  0  0  0  0  0
    8.9282    4.2500    0.0000 F   0  0  0  0  0  0  0  0  0  0  0  0
    2.8660    0.7500    0.0000 O   0  0  0  0  0  0  0  0  0  0  0  0
    4.9641    3.1160    0.0000 O   0  0  0  0  0  0  0  0  0  0  0  0
    5.9641    1.3840    0.0000 O   0  0  0  0  0  0  0  0  0  0  0  0
    5.4641   -2.7500    0.0000 O   0  0  0  0  0  0  0  0  0  0  0  0
    4.5981    1.7500    0.0000 N   0  0  0  0  0  0  0  0  0  0  0  0
    6.3301   -1.2500    0.0000 N   0  0  0  0  0  0  0  0  0  0  0  0
    4.5981    0.7500    0.0000 C   0  0  0  0  0  0  0  0  0  0  0  0
    5.4641   -0.7500    0.0000 C   0  0  0  0  0  0  0  0  0  0  0  0
    5.4641    0.2500    0.0000 C   0  0  0  0  0  0  0  0  0  0  0  0
    3.7321    0.2500    0.0000 C   0  0  0  0  0  0  0  0  0  0  0  0
    6.3301    2.7500    0.0000 C   0  0  0  0  0  0  0  0  0  0  0  0
    4.5981   -1.2500    0.0000 C   0  0  0  0  0  0  0  0  0  0  0  0
    3.7321   -0.7500    0.0000 C   0  0  0  0  0  0  0  0  0  0  0  0
    7.1962   -2.7500    0.0000 C   0  0  1  0  0  0  0  0  0  0  0  0
    6.3301   -2.2500    0.0000 C   0  0  0  0  0  0  0  0  0  0  0  0
    7.1962    2.2500    0.0000 C   0  0  0  0  0  0  0  0  0  0  0  0
    6.3301    3.7500    0.0000 C   0  0  0  0  0  0  0  0  0  0  0  0
    8.0622   -2.2500    0.0000 C   0  0  0  0  0  0  0  0  0  0  0  0
    8.0622    2.7500    0.0000 C   0  0  0  0  0  0  0  0  0  0  0  0
    7.1962    4.2500    0.0000 C   0  0  0  0  0  0  0  0  0  0  0  0
    8.0622    3.7500    0.0000 C   0  0  0  0  0  0  0  0  0  0  0  0
    2.0000    0.2500    0.0000 C   0  0  0  0  0  0  0  0  0  0  0  0
    8.0622   -4.2500    0.0000 C   0  0  0  0  0  0  0  0  0  0  0  0
    4.0611    2.0600    0.0000 H   0  0  0  0  0  0  0  0  0  0  0  0
    6.0010    0.5600    0.0000 H   0  0  0  0  0  0  0  0  0  0  0  0
    4.5981   -1.8700    0.0000 H   0  0  0  0  0  0  0  0  0  0  0  0
    3.1951   -1.0600    0.0000 H   0  0  0  0  0  0  0  0  0  0  0  0
    7.7331   -3.0600    0.0000 H   0  0  0  0  0  0  0  0  0  0  0  0
    6.8671   -0.9400    0.0000 H   0  0  0  0  0  0  0  0  0  0  0  0
    7.1962    1.6300    0.0000 H   0  0  0  0  0  0  0  0  0  0  0  0
    5.7932    4.0600    0.0000 H   0  0  0  0  0  0  0  0  0  0  0  0
    8.3722   -2.7869    0.0000 H   0  0  0  0  0  0  0  0  0  0  0  0
    8.5991   -1.9400    0.0000 H   0  0  0  0  0  0  0  0  0  0  0  0
    7.7522   -1.7131    0.0000 H   0  0  0  0  0  0  0  0  0  0  0  0
    8.5991    2.4400    0.0000 H   0  0  0  0  0  0  0  0  0  0  0  0
    7.1962    4.8700    0.0000 H   0  0  0  0  0  0  0  0  0  0  0  0
    1.6900    0.7869    0.0000 H   0  0  0  0  0  0  0  0  0  0  0  0
    1.4631   -0.0600    0.0000 H   0  0  0  0  0  0  0  0  0  0  0  0
    2.3100   -0.2869    0.0000 H   0  0  0  0  0  0  0  0  0  0  0  0
    7.7522   -4.7869    0.0000 H   0  0  0  0  0  0  0  0  0  0  0  0
    8.5991   -4.5600    0.0000 H   0  0  0  0  0  0  0  0  0  0  0  0
    8.3722   -3.7131    0.0000 H   0  0  0  0  0  0  0  0  0  0  0  0
  1  5  2  0  0  0  0 
  1  6  2  0  0  0  0 
  1  8  1  0  0  0  0 
  1 14  1  0  0  0  0 
  2 17  1  0  0  0  0 
  2 26  1  0  0  0  0 
  3 24  1  0  0  0  0 
  4 13  1  0  0  0  0 
  4 25  1  0  0  0  0 
  7 18  2  0  0  0  0 
  8 10  1  0  0  0  0 
  8 27  1  0  0  0  0 
  9 11  1  0  0  0  0 
  9 18  1  0  0  0  0 
  9 32  1  0  0  0  0 
 10 12  1  0  0  0  0 
 10 13  2  0  0  0  0 
 11 12  2  0  0  0  0 
 11 15  1  0  0  0  0 
 12 28  1  0  0  0  0 
 13 16  1  0  0  0  0 
 14 19  2  0  0  0  0 
 14 20  1  0  0  0  0 
 15 16  2  0  0  0  0 
 15 29  1  0  0  0  0 
 16 30  1  0  0  0  0 
 17 18  1  0  0  0  0 
 17 21  1  1  0  0  0 
 17 31  1  0  0  0  0 
 19 22  1  0  0  0  0 
 19 33  1  0  0  0  0 
 20 23  2  0  0  0  0 
 20 34  1  0  0  0  0 
 21 35  1  0  0  0  0 
 21 36  1  0  0  0  0 
 21 37  1  0  0  0  0 
 22 24  2  0  0  0  0 
 22 38  1  0  0  0  0 
 23 24  1  0  0  0  0 
 23 39  1  0  0  0  0 
 25 40  1  0  0  0  0 
 25 41  1  0  0  0  0 
 25 42  1  0  0  0  0 
 26 43  1  0  0  0  0 
 26 44  1  0  0  0  0 
 26 45  1  0  0  0  0 
M  END
> <cdk:Title>
40399283

> <cdk:Remark>
null

> <PUBCHEM_COMPOUND_CID>
40399283

> <PUBCHEM_COMPOUND_CANONICALIZED>
1

> <PUBCHEM_CACTVS_COMPLEXITY>
562

> <PUBCHEM_CACTVS_HBOND_ACCEPTOR>
7

> <PUBCHEM_CACTVS_HBOND_DONOR>
2

> <PUBCHEM_CACTVS_ROTATABLE_BOND>
7

> <PUBCHEM_CACTVS_SUBSKEYS>
AAADceB7OQBgAAAAAAAAAAAAAAAAAAAAAAAwYAAAAAAAAAABQAAAHwQQQAAACAyF0Aqyx4LABAqIACVSUHDCCBAhIhAIiBkHbIgOJiLE8duFMChk1BHI6AewQAAAAEAAAAQAEAAAgAAACAAgAAAAAAAAAA==

> <PUBCHEM_IUPAC_OPENEYE_NAME>
(2R)-N-[3-[(4-fluorophenyl)sulfonylamino]-4-methoxy-phenyl]-2-methylsulfanyl-propanamide

> <PUBCHEM_IUPAC_CAS_NAME>
(2R)-N-[3-[(4-fluorophenyl)sulfonylamino]-4-methoxyphenyl]-2-(methylthio)propanamide

> <PUBCHEM_IUPAC_NAME>
(2R)-N-[3-[(4-fluorophenyl)sulfonylamino]-4-methoxyphenyl]-2-methylsulfanylpropanamide

> <PUBCHEM_IUPAC_SYSTEMATIC_NAME>
(2R)-N-[3-[(4-fluorophenyl)sulfonylamino]-4-methoxy-phenyl]-2-methylsulfanyl-propanamide

> <PUBCHEM_IUPAC_TRADITIONAL_NAME>
(2R)-N-[3-[(4-fluorophenyl)sulfonylamino]-4-methoxy-phenyl]-2-(methylthio)propionamide

> <PUBCHEM_IUPAC_INCHI>
InChI=1S/C17H19FN2O4S2/c1-11(25-3)17(21)19-13-6-9-16(24-2)15(10-13)20-26(22,23)14-7-4-12(18)5-8-14/h4-11,20H,1-3H3,(H,19,21)/t11-/m1/s1

> <PUBCHEM_IUPAC_INCHIKEY>
OVFHXUDVYXDXMQ-LLVKDONJSA-N

> <PUBCHEM_XLOGP3>
2.6

> <PUBCHEM_EXACT_MASS>
398.077027

> <PUBCHEM_MOLECULAR_FORMULA>
C17H19FN2O4S2

> <PUBCHEM_MOLECULAR_WEIGHT>
398.472163

> <PUBCHEM_OPENEYE_CAN_SMILES>
CC(C(=O)NC1=CC(=C(C=C1)OC)NS(=O)(=O)C2=CC=C(C=C2)F)SC

> <PUBCHEM_OPENEYE_ISO_SMILES>
C[C@H](C(=O)NC1=CC(=C(C=C1)OC)NS(=O)(=O)C2=CC=C(C=C2)F)SC

> <PUBCHEM_CACTVS_TPSA>
118

> <PUBCHEM_MONOISOTOPIC_WEIGHT>
398.077027

> <PUBCHEM_TOTAL_CHARGE>
0

> <PUBCHEM_HEAVY_ATOM_COUNT>
26

> <PUBCHEM_ATOM_DEF_STEREO_COUNT>
1

> <PUBCHEM_ATOM_UDEF_STEREO_COUNT>
0

> <PUBCHEM_BOND_DEF_STEREO_COUNT>
0

> <PUBCHEM_BOND_UDEF_STEREO_COUNT>
0

> <PUBCHEM_ISOTOPIC_ATOM_COUNT>
0

> <PUBCHEM_COMPONENT_COUNT>
1

> <PUBCHEM_CACTVS_TAUTO_COUNT>
2

> <PUBCHEM_COORDINATE_TYPE>
1

> <PUBCHEM_BONDANNOTATIONS>
10  12  8

$$$$
