22829210
  CDK     0926142134

137140  0  0  0  0  0  0  0  0999 V2000
    2.7071   -4.1148    0.0000 O   0  0  0  0  0  0  0  0  0  0  0  0
    3.2247   -6.0467    0.0000 O   0  0  0  0  0  0  0  0  0  0  0  0
    7.4674   -1.8041    0.0000 O   0  0  0  0  0  0  0  0  0  0  0  0
    9.1710    2.4903    0.0000 O   0  0  0  0  0  0  0  0  0  0  0  0
   10.9030    1.4903    0.0000 O   0  0  0  0  0  0  0  0  0  0  0  0
    9.1404   -1.3558    0.0000 O   0  0  0  0  0  0  0  0  0  0  0  0
    7.2086   -0.8381    0.0000 O   0  0  0  0  0  0  0  0  0  0  0  0
   11.2617    0.7656    0.0000 O   0  0  0  0  0  0  0  0  0  0  0  0
    9.8475   -0.6487    0.0000 O   0  0  0  0  0  0  0  0  0  0  0  0
    7.5799    3.0423    0.0000 O   0  0  0  0  0  0  0  0  0  0  0  0
    5.9145    3.9915    0.0000 O   0  0  0  0  0  0  0  0  0  0  0  0
    5.1418    3.9494    0.0000 O   0  0  0  0  0  0  0  0  0  0  0  0
    8.6228    0.5761    0.0000 N   0  0  0  0  0  0  0  0  0  0  0  0
    5.3461   -3.9254    0.0000 C   0  0  3  0  0  0  0  0  0  0  0  0
    4.3801   -3.6666    0.0000 C   0  0  0  0  0  0  0  0  0  0  0  0
    5.6049   -4.8913    0.0000 C   0  0  0  0  0  0  0  0  0  0  0  0
    6.0532   -3.2183    0.0000 C   0  0  0  0  0  0  0  0  0  0  0  0
    3.6730   -4.3737    0.0000 C   0  0  1  0  0  0  0  0  0  0  0  0
    4.8978   -5.5984    0.0000 C   0  0  0  0  0  0  0  0  0  0  0  0
    3.9318   -5.3396    0.0000 C   0  0  2  0  0  0  0  0  0  0  0  0
    5.7944   -2.2523    0.0000 C   0  0  2  0  0  0  0  0  0  0  0  0
    6.5015   -1.5452    0.0000 C   0  0  2  0  0  0  0  0  0  0  0  0
    4.8284   -1.9935    0.0000 C   0  0  0  0  0  0  0  0  0  0  0  0
    6.2426   -0.5793    0.0000 C   0  0  0  0  0  0  0  0  0  0  0  0
    7.9157   -0.1310    0.0000 C   0  0  1  0  0  0  0  0  0  0  0  0
   10.9030    2.4903    0.0000 C   0  0  1  0  0  0  0  0  0  0  0  0
   10.0370    1.9903    0.0000 C   0  0  2  0  0  0  0  0  0  0  0  0
   10.9030    3.4903    0.0000 C   0  0  0  0  0  0  0  0  0  0  0  0
    9.1710    3.4903    0.0000 C   0  0  1  0  0  0  0  0  0  0  0  0
    7.0311    0.3226    0.0000 C   0  0  0  0  0  0  0  0  0  0  0  0
   10.0370    3.9903    0.0000 C   0  0  0  0  0  0  0  0  0  0  0  0
    8.1692    1.4606    0.0000 C   0  0  0  0  0  0  0  0  0  0  0  0
    7.1875    1.3043    0.0000 C   0  0  0  0  0  0  0  0  0  0  0  0
    8.1745   -1.0970    0.0000 C   0  0  0  0  0  0  0  0  0  0  0  0
    6.9498    0.1278    0.0000 C   0  0  0  0  0  0  0  0  0  0  0  0
    8.3049    3.9903    0.0000 C   0  0  0  0  0  0  0  0  0  0  0  0
   10.2958    1.0244    0.0000 C   0  0  0  0  0  0  0  0  0  0  0  0
    9.5887    0.3173    0.0000 C   0  0  0  0  0  0  0  0  0  0  0  0
    2.0000   -4.8220    0.0000 C   0  0  0  0  0  0  0  0  0  0  0  0
   11.9030    2.4903    0.0000 C   0  0  0  0  0  0  0  0  0  0  0  0
    6.6909    1.0937    0.0000 C   0  0  2  0  0  0  0  0  0  0  0  0
    7.4570    4.0347    0.0000 C   0  0  1  0  0  0  0  0  0  0  0  0
    5.7250    1.3525    0.0000 C   0  0  0  0  0  0  0  0  0  0  0  0
    6.9570    4.9007    0.0000 C   0  0  0  0  0  0  0  0  0  0  0  0
    7.3980    1.8008    0.0000 C   0  0  0  0  0  0  0  0  0  0  0  0
    7.1392    2.7668    0.0000 C   0  0  0  0  0  0  0  0  0  0  0  0
    7.5658    5.6941    0.0000 C   0  0  0  0  0  0  0  0  0  0  0  0
    5.9911    5.1596    0.0000 C   0  0  0  0  0  0  0  0  0  0  0  0
    6.1733    3.0256    0.0000 C   0  0  2  0  0  0  0  0  0  0  0  0
    8.5007    2.6524    0.0000 C   0  0  0  0  0  0  0  0  0  0  0  0
    7.8463    3.4739    0.0000 C   0  0  0  0  0  0  0  0  0  0  0  0
    5.4662    2.3185    0.0000 C   0  0  0  0  0  0  0  0  0  0  0  0
    5.4911    6.0256    0.0000 C   0  0  0  0  0  0  0  0  0  0  0  0
    3.7591    3.0256    0.0000 C   0  0  1  0  0  0  0  0  0  0  0  0
    4.7591    3.0256    0.0000 C   0  0  0  0  0  0  0  0  0  0  0  0
    3.7591    4.0256    0.0000 C   0  0  0  0  0  0  0  0  0  0  0  0
    2.8930    4.5256    0.0000 C   0  0  1  0  0  0  0  0  0  0  0  0
    4.6251    5.5256    0.0000 C   0  0  0  0  0  0  0  0  0  0  0  0
    3.0520    2.3185    0.0000 C   0  0  0  0  0  0  0  0  0  0  0  0
    2.8930    5.5256    0.0000 C   0  0  0  0  0  0  0  0  0  0  0  0
    3.7591    6.0256    0.0000 C   0  0  0  0  0  0  0  0  0  0  0  0
    2.0270    4.0256    0.0000 C   0  0  0  0  0  0  0  0  0  0  0  0
    5.1261   -3.1043    0.0000 H   0  0  0  0  0  0  0  0  0  0  0  0
    4.6422   -3.1046    0.0000 H   0  0  0  0  0  0  0  0  0  0  0  0
    3.8723   -3.3109    0.0000 H   0  0  0  0  0  0  0  0  0  0  0  0
    5.9605   -5.3992    0.0000 H   0  0  0  0  0  0  0  0  0  0  0  0
    6.1668   -4.6293    0.0000 H   0  0  0  0  0  0  0  0  0  0  0  0
    6.4088   -3.7262    0.0000 H   0  0  0  0  0  0  0  0  0  0  0  0
    6.6151   -2.9562    0.0000 H   0  0  0  0  0  0  0  0  0  0  0  0
    3.2346   -4.8121    0.0000 H   0  0  0  0  0  0  0  0  0  0  0  0
    4.6358   -6.1603    0.0000 H   0  0  0  0  0  0  0  0  0  0  0  0
    5.4056   -5.9540    0.0000 H   0  0  0  0  0  0  0  0  0  0  0  0
    3.3330   -5.1791    0.0000 H   0  0  0  0  0  0  0  0  0  0  0  0
    5.3560   -2.6908    0.0000 H   0  0  0  0  0  0  0  0  0  0  0  0
    6.7215   -2.3663    0.0000 H   0  0  0  0  0  0  0  0  0  0  0  0
    4.9889   -1.3946    0.0000 H   0  0  0  0  0  0  0  0  0  0  0  0
    4.2296   -1.8331    0.0000 H   0  0  0  0  0  0  0  0  0  0  0  0
    4.6680   -2.5924    0.0000 H   0  0  0  0  0  0  0  0  0  0  0  0
    5.8870   -0.0714    0.0000 H   0  0  0  0  0  0  0  0  0  0  0  0
    5.6807   -0.8413    0.0000 H   0  0  0  0  0  0  0  0  0  0  0  0
    8.6720   -0.5189    0.0000 H   0  0  0  0  0  0  0  0  0  0  0  0
   11.0635    1.8914    0.0000 H   0  0  0  0  0  0  0  0  0  0  0  0
    3.3852   -6.6456    0.0000 H   0  0  0  0  0  0  0  0  0  0  0  0
    9.1710    4.3403    0.0000 H   0  0  0  0  0  0  0  0  0  0  0  0
   11.5136    3.3826    0.0000 H   0  0  0  0  0  0  0  0  0  0  0  0
   11.1151    4.0729    0.0000 H   0  0  0  0  0  0  0  0  0  0  0  0
   10.4355    4.4652    0.0000 H   0  0  0  0  0  0  0  0  0  0  0  0
    9.6385    4.4652    0.0000 H   0  0  0  0  0  0  0  0  0  0  0  0
    6.4325    0.4839    0.0000 H   0  0  0  0  0  0  0  0  0  0  0  0
    6.8078   -0.2558    0.0000 H   0  0  0  0  0  0  0  0  0  0  0  0
    8.7476    1.6840    0.0000 H   0  0  0  0  0  0  0  0  0  0  0  0
    8.0078    2.0593    0.0000 H   0  0  0  0  0  0  0  0  0  0  0  0
    7.1548    1.9234    0.0000 H   0  0  0  0  0  0  0  0  0  0  0  0
    6.5683    1.3369    0.0000 H   0  0  0  0  0  0  0  0  0  0  0  0
    8.7868    4.3805    0.0000 H   0  0  0  0  0  0  0  0  0  0  0  0
    8.1289    3.3958    0.0000 H   0  0  0  0  0  0  0  0  0  0  0  0
    1.5616   -4.3835    0.0000 H   0  0  0  0  0  0  0  0  0  0  0  0
    1.5616   -5.2604    0.0000 H   0  0  0  0  0  0  0  0  0  0  0  0
    2.4384   -5.2604    0.0000 H   0  0  0  0  0  0  0  0  0  0  0  0
   11.9030    1.8703    0.0000 H   0  0  0  0  0  0  0  0  0  0  0  0
   12.5230    2.4903    0.0000 H   0  0  0  0  0  0  0  0  0  0  0  0
   11.9030    3.1103    0.0000 H   0  0  0  0  0  0  0  0  0  0  0  0
    6.2525    0.6553    0.0000 H   0  0  0  0  0  0  0  0  0  0  0  0
    6.8692    3.8377    0.0000 H   0  0  0  0  0  0  0  0  0  0  0  0
   11.5230    1.4903    0.0000 H   0  0  0  0  0  0  0  0  0  0  0  0
    5.8855    1.9514    0.0000 H   0  0  0  0  0  0  0  0  0  0  0  0
    5.1261    1.5130    0.0000 H   0  0  0  0  0  0  0  0  0  0  0  0
    5.5645    0.7537    0.0000 H   0  0  0  0  0  0  0  0  0  0  0  0
    7.9969    1.6404    0.0000 H   0  0  0  0  0  0  0  0  0  0  0  0
    8.0577    5.3166    0.0000 H   0  0  0  0  0  0  0  0  0  0  0  0
    7.9432    6.1860    0.0000 H   0  0  0  0  0  0  0  0  0  0  0  0
    7.0739    6.0715    0.0000 H   0  0  0  0  0  0  0  0  0  0  0  0
    5.6137    4.6677    0.0000 H   0  0  0  0  0  0  0  0  0  0  0  0
    5.5744    3.1860    0.0000 H   0  0  0  0  0  0  0  0  0  0  0  0
    8.2589    2.0814    0.0000 H   0  0  0  0  0  0  0  0  0  0  0  0
    9.0716    2.4106    0.0000 H   0  0  0  0  0  0  0  0  0  0  0  0
    8.7424    3.2233    0.0000 H   0  0  0  0  0  0  0  0  0  0  0  0
    8.2847    3.0354    0.0000 H   0  0  0  0  0  0  0  0  0  0  0  0
    8.2847    3.9123    0.0000 H   0  0  0  0  0  0  0  0  0  0  0  0
    7.4079    3.9123    0.0000 H   0  0  0  0  0  0  0  0  0  0  0  0
    5.0278    1.8801    0.0000 H   0  0  0  0  0  0  0  0  0  0  0  0
    5.9046    1.8801    0.0000 H   0  0  0  0  0  0  0  0  0  0  0  0
    5.6516    6.6244    0.0000 H   0  0  0  0  0  0  0  0  0  0  0  0
    3.9963    2.4528    0.0000 H   0  0  0  0  0  0  0  0  0  0  0  0
    4.3697    3.9179    0.0000 H   0  0  0  0  0  0  0  0  0  0  0  0
    3.9711    4.6082    0.0000 H   0  0  0  0  0  0  0  0  0  0  0  0
    6.3529    4.4299    0.0000 H   0  0  0  0  0  0  0  0  0  0  0  0
    2.8930    3.9056    0.0000 H   0  0  0  0  0  0  0  0  0  0  0  0
    4.6251    4.9056    0.0000 H   0  0  0  0  0  0  0  0  0  0  0  0
    2.6136    2.7569    0.0000 H   0  0  0  0  0  0  0  0  0  0  0  0
    2.6136    1.8801    0.0000 H   0  0  0  0  0  0  0  0  0  0  0  0
    3.4904    1.8801    0.0000 H   0  0  0  0  0  0  0  0  0  0  0  0
    2.3561    5.8356    0.0000 H   0  0  0  0  0  0  0  0  0  0  0  0
    3.7591    6.6456    0.0000 H   0  0  0  0  0  0  0  0  0  0  0  0
    1.7170    4.5625    0.0000 H   0  0  0  0  0  0  0  0  0  0  0  0
    1.4901    3.7156    0.0000 H   0  0  0  0  0  0  0  0  0  0  0  0
    2.3370    3.4886    0.0000 H   0  0  0  0  0  0  0  0  0  0  0  0
 18  1  1  1  0  0  0 
  1 39  1  0  0  0  0 
 20  2  1  6  0  0  0 
  2 83  1  0  0  0  0 
  3 22  1  0  0  0  0 
  3 34  1  0  0  0  0 
  4 27  1  0  0  0  0 
  4 29  1  0  0  0  0 
 27  5  1  1  0  0  0 
  5105  1  0  0  0  0 
  6 34  2  0  0  0  0 
  7 35  2  0  0  0  0 
  8 37  2  0  0  0  0 
  9 38  2  0  0  0  0 
 42 10  1  6  0  0  0 
 10 50  1  0  0  0  0 
 49 11  1  6  0  0  0 
 11127  1  0  0  0  0 
 12 55  2  0  0  0  0 
 13 25  1  0  0  0  0 
 13 32  1  0  0  0  0 
 13 38  1  0  0  0  0 
 14 15  1  0  0  0  0 
 14 16  1  0  0  0  0 
 14 17  1  0  0  0  0 
 14 63  1  0  0  0  0 
 15 18  1  0  0  0  0 
 15 64  1  0  0  0  0 
 15 65  1  0  0  0  0 
 16 19  1  0  0  0  0 
 16 66  1  0  0  0  0 
 16 67  1  0  0  0  0 
 17 21  1  0  0  0  0 
 17 68  1  0  0  0  0 
 17 69  1  0  0  0  0 
 18 20  1  0  0  0  0 
 18 70  1  0  0  0  0 
 19 20  1  0  0  0  0 
 19 71  1  0  0  0  0 
 19 72  1  0  0  0  0 
 20 73  1  0  0  0  0 
 21 22  1  0  0  0  0 
 21 23  1  1  0  0  0 
 21 74  1  0  0  0  0 
 22 24  1  0  0  0  0 
 22 75  1  1  0  0  0 
 23 76  1  0  0  0  0 
 23 77  1  0  0  0  0 
 23 78  1  0  0  0  0 
 24 35  1  0  0  0  0 
 24 79  1  0  0  0  0 
 24 80  1  0  0  0  0 
 25 30  1  0  0  0  0 
 25 34  1  0  0  0  0 
 25 81  1  1  0  0  0 
 26 27  1  0  0  0  0 
 26 28  1  0  0  0  0 
 26 40  1  1  0  0  0 
 26 82  1  0  0  0  0 
 27 37  1  0  0  0  0 
 28 31  1  0  0  0  0 
 28 85  1  0  0  0  0 
 28 86  1  0  0  0  0 
 29 31  1  0  0  0  0 
 29 36  1  0  0  0  0 
 29 84  1  1  0  0  0 
 30 33  1  0  0  0  0 
 30 89  1  0  0  0  0 
 30 90  1  0  0  0  0 
 31 87  1  0  0  0  0 
 31 88  1  0  0  0  0 
 32 33  1  0  0  0  0 
 32 91  1  0  0  0  0 
 32 92  1  0  0  0  0 
 33 93  1  0  0  0  0 
 33 94  1  0  0  0  0 
 35 41  1  0  0  0  0 
 36 42  1  0  0  0  0 
 36 95  1  0  0  0  0 
 36 96  1  0  0  0  0 
 37 38  1  0  0  0  0 
 39 97  1  0  0  0  0 
 39 98  1  0  0  0  0 
 39 99  1  0  0  0  0 
 40100  1  0  0  0  0 
 40101  1  0  0  0  0 
 40102  1  0  0  0  0 
 41 43  1  6  0  0  0 
 41 45  1  0  0  0  0 
 41103  1  0  0  0  0 
 42 44  1  0  0  0  0 
 42104  1  0  0  0  0 
 43106  1  0  0  0  0 
 43107  1  0  0  0  0 
 43108  1  0  0  0  0 
 44 47  1  0  0  0  0 
 44 48  2  0  0  0  0 
 45 46  2  0  0  0  0 
 45109  1  0  0  0  0 
 46 49  1  0  0  0  0 
 46 51  1  0  0  0  0 
 47110  1  0  0  0  0 
 47111  1  0  0  0  0 
 47112  1  0  0  0  0 
 48 53  1  0  0  0  0 
 48113  1  0  0  0  0 
 49 52  1  0  0  0  0 
 49114  1  0  0  0  0 
 50115  1  0  0  0  0 
 50116  1  0  0  0  0 
 50117  1  0  0  0  0 
 51118  1  0  0  0  0 
 51119  1  0  0  0  0 
 51120  1  0  0  0  0 
 52 55  1  0  0  0  0 
 52121  1  0  0  0  0 
 52122  1  0  0  0  0 
 53 58  2  0  0  0  0 
 53123  1  0  0  0  0 
 54 55  1  0  0  0  0 
 54 56  1  0  0  0  0 
 54 59  1  6  0  0  0 
 54124  1  0  0  0  0 
 56 57  1  0  0  0  0 
 56125  1  0  0  0  0 
 56126  1  0  0  0  0 
 57 60  1  0  0  0  0 
 57 62  1  6  0  0  0 
 57128  1  0  0  0  0 
 58 61  1  0  0  0  0 
 58129  1  0  0  0  0 
 59130  1  0  0  0  0 
 59131  1  0  0  0  0 
 59132  1  0  0  0  0 
 60 61  2  0  0  0  0 
 60133  1  0  0  0  0 
 61134  1  0  0  0  0 
 62135  1  0  0  0  0 
 62136  1  0  0  0  0 
 62137  1  0  0  0  0 
M  END
> <cdk:Title>
22829210

> <cdk:Remark>
null

> <PUBCHEM_COMPOUND_CID>
22829210

> <PUBCHEM_COMPOUND_CANONICALIZED>
1

> <PUBCHEM_CACTVS_COMPLEXITY>
1690

> <PUBCHEM_CACTVS_HBOND_ACCEPTOR>
12

> <PUBCHEM_CACTVS_HBOND_DONOR>
3

> <PUBCHEM_CACTVS_ROTATABLE_BOND>
5

> <PUBCHEM_CACTVS_SUBSKEYS>
AAADcfB+PAAAAAAAAAAAAAAAAAAAAWAAAAA0QAAAAAAAAAAAAAAAHgAACAAADTzhgAYCCAMABgCIAqHSGAIAAAAgAAAICAHIAAgbFBYAoSQHUAAHpgCfsAOY+faOAAAAAAAAAABAAAIAAACAAAAAAAAAAA==

> <PUBCHEM_IUPAC_INCHI>
InChI=1S/C49H75NO12/c1-29-14-11-10-12-15-30(2)43(59-8)26-37-19-17-35(7)49(58,62-37)46(55)47(56)50-21-13-16-38(50)48(57)61-44(34(6)24-36-18-20-39(51)45(25-36)60-9)28-42(54)33(5)23-32(4)41(53)27-40(52)31(3)22-29/h10-12,14-15,23,29,31,33-39,41,43-45,51,53,58H,13,16-22,24-28H2,1-9H3/b12-10+,14-11-,30-15+,32-23-/t29-,31-,33-,34-,35-,36?,37+,38+,39+,41+,43+,44+,45+,49-/m1/s1

> <PUBCHEM_IUPAC_INCHIKEY>
FTZAGZWXOINBEY-WZESGOMNSA-N

> <PUBCHEM_XLOGP3_AA>
5.7

> <PUBCHEM_EXACT_MASS>
869.528927

> <PUBCHEM_MOLECULAR_FORMULA>
C49H75NO12

> <PUBCHEM_MOLECULAR_WEIGHT>
870.1193

> <PUBCHEM_OPENEYE_CAN_SMILES>
CC1CCC2CC(C(=CC=CC=CC(CC(C(=O)CC(C(=CC(C(=O)CC(OC(=O)C3CCCN3C(=O)C(=O)C1(O2)O)C(C)CC4CCC(C(C4)OC)O)C)C)O)C)C)C)OC

> <PUBCHEM_OPENEYE_ISO_SMILES>
C[C@@H]1CC[C@H]2C[C@@H](/C(=C/C=C/C=C\[C@H](C[C@H](C(=O)C[C@@H](/C(=C\[C@H](C(=O)C[C@H](OC(=O)[C@@H]3CCCN3C(=O)C(=O)[C@@]1(O2)O)[C@H](C)CC4CC[C@@H]([C@H](C4)OC)O)C)/C)O)C)C)/C)OC

> <PUBCHEM_CACTVS_TPSA>
186

> <PUBCHEM_MONOISOTOPIC_WEIGHT>
869.528927

> <PUBCHEM_TOTAL_CHARGE>
0

> <PUBCHEM_HEAVY_ATOM_COUNT>
62

> <PUBCHEM_ATOM_DEF_STEREO_COUNT>
13

> <PUBCHEM_ATOM_UDEF_STEREO_COUNT>
1

> <PUBCHEM_BOND_DEF_STEREO_COUNT>
4

> <PUBCHEM_BOND_UDEF_STEREO_COUNT>
0

> <PUBCHEM_ISOTOPIC_ATOM_COUNT>
0

> <PUBCHEM_COMPONENT_COUNT>
1

> <PUBCHEM_CACTVS_TAUTO_COUNT>
15

> <PUBCHEM_COORDINATE_TYPE>
1

> <PUBCHEM_BONDANNOTATIONS>
18  1  5

$$$$
