6596816
  CDK     0926142134

 66 71  0  0  0  0  0  0  0  0999 V2000
    4.0871    0.3448    0.0000 O   0  0  0  0  0  0  0  0  0  0  0  0
    2.9511    4.0158    0.0000 O   0  0  0  0  0  0  0  0  0  0  0  0
    4.9531   -1.1552    0.0000 N   0  0  0  0  0  0  0  0  0  0  0  0
    7.1586   -3.2701    0.0000 N   0  0  3  0  0  0  0  0  0  0  0  0
    7.4018    0.6812    0.0000 N   0  0  0  0  0  0  0  0  0  0  0  0
    6.9018    1.5472    0.0000 N   0  0  0  0  0  0  0  0  0  0  0  0
    5.7621   -1.7430    0.0000 C   0  0  2  0  0  0  0  0  0  0  0  0
    5.4531   -2.6941    0.0000 C   0  0  2  0  0  0  0  0  0  0  0  0
    6.7775   -1.5108    0.0000 C   0  0  0  0  0  0  0  0  0  0  0  0
    6.1380   -3.4788    0.0000 C   0  0  0  0  0  0  0  0  0  0  0  0
    4.4531   -2.6941    0.0000 C   0  0  0  0  0  0  0  0  0  0  0  0
    7.4804   -2.2795    0.0000 C   0  0  0  0  0  0  0  0  0  0  0  0
    4.1441   -1.7430    0.0000 C   0  0  0  0  0  0  0  0  0  0  0  0
    3.7681   -3.4788    0.0000 C   0  0  0  0  0  0  0  0  0  0  0  0
    4.9531   -0.1552    0.0000 C   0  0  0  0  0  0  0  0  0  0  0  0
    3.1287   -1.5108    0.0000 C   0  0  0  0  0  0  0  0  0  0  0  0
    7.8248   -4.0158    0.0000 C   0  0  0  0  0  0  0  0  0  0  0  0
    2.7476   -3.2701    0.0000 C   0  0  0  0  0  0  0  0  0  0  0  0
    2.4257   -2.2795    0.0000 C   0  0  0  0  0  0  0  0  0  0  0  0
    5.8191    0.3448    0.0000 C   0  0  0  0  0  0  0  0  0  0  0  0
    2.0813   -4.0158    0.0000 C   0  0  0  0  0  0  0  0  0  0  0  0
    5.9236    1.3393    0.0000 C   0  0  0  0  0  0  0  0  0  0  0  0
    6.7326   -0.0620    0.0000 C   0  0  0  0  0  0  0  0  0  0  0  0
    5.1805    2.0084    0.0000 C   0  0  0  0  0  0  0  0  0  0  0  0
    8.3963    0.5767    0.0000 C   0  0  0  0  0  0  0  0  0  0  0  0
    4.2294    1.6994    0.0000 C   0  0  0  0  0  0  0  0  0  0  0  0
    5.3884    2.9866    0.0000 C   0  0  0  0  0  0  0  0  0  0  0  0
    8.8030   -0.3369    0.0000 C   0  0  0  0  0  0  0  0  0  0  0  0
    8.9841    1.3857    0.0000 C   0  0  0  0  0  0  0  0  0  0  0  0
    3.4863    2.3685    0.0000 C   0  0  0  0  0  0  0  0  0  0  0  0
    4.6453    3.6557    0.0000 C   0  0  0  0  0  0  0  0  0  0  0  0
    3.6942    3.3467    0.0000 C   0  0  0  0  0  0  0  0  0  0  0  0
    9.7976   -0.4414    0.0000 C   0  0  0  0  0  0  0  0  0  0  0  0
    9.9786    1.2811    0.0000 C   0  0  0  0  0  0  0  0  0  0  0  0
   10.3853    0.3676    0.0000 C   0  0  0  0  0  0  0  0  0  0  0  0
    2.0000    3.7068    0.0000 C   0  0  0  0  0  0  0  0  0  0  0  0
    5.9324   -0.9102    0.0000 H   0  0  0  0  0  0  0  0  0  0  0  0
    5.1014   -3.4679    0.0000 H   0  0  0  0  0  0  0  0  0  0  0  0
    7.2999   -1.1768    0.0000 H   0  0  0  0  0  0  0  0  0  0  0  0
    6.5379   -0.9389    0.0000 H   0  0  0  0  0  0  0  0  0  0  0  0
    5.6081   -3.8006    0.0000 H   0  0  0  0  0  0  0  0  0  0  0  0
    6.3644   -4.0560    0.0000 H   0  0  0  0  0  0  0  0  0  0  0  0
    8.0286   -2.5691    0.0000 H   0  0  0  0  0  0  0  0  0  0  0  0
    7.8596   -1.7889    0.0000 H   0  0  0  0  0  0  0  0  0  0  0  0
    3.9665   -4.0662    0.0000 H   0  0  0  0  0  0  0  0  0  0  0  0
    2.9439   -0.9189    0.0000 H   0  0  0  0  0  0  0  0  0  0  0  0
    7.3625   -4.4289    0.0000 H   0  0  0  0  0  0  0  0  0  0  0  0
    8.2379   -4.4782    0.0000 H   0  0  0  0  0  0  0  0  0  0  0  0
    8.2872   -3.6027    0.0000 H   0  0  0  0  0  0  0  0  0  0  0  0
    1.8198   -2.1482    0.0000 H   0  0  0  0  0  0  0  0  0  0  0  0
    1.6190   -3.6027    0.0000 H   0  0  0  0  0  0  0  0  0  0  0  0
    1.6683   -4.4782    0.0000 H   0  0  0  0  0  0  0  0  0  0  0  0
    2.5437   -4.4289    0.0000 H   0  0  0  0  0  0  0  0  0  0  0  0
    6.8616   -0.6684    0.0000 H   0  0  0  0  0  0  0  0  0  0  0  0
    4.1005    1.0930    0.0000 H   0  0  0  0  0  0  0  0  0  0  0  0
    5.9781    3.1782    0.0000 H   0  0  0  0  0  0  0  0  0  0  0  0
    8.4386   -0.8385    0.0000 H   0  0  0  0  0  0  0  0  0  0  0  0
    8.7319    1.9521    0.0000 H   0  0  0  0  0  0  0  0  0  0  0  0
    2.8966    2.1770    0.0000 H   0  0  0  0  0  0  0  0  0  0  0  0
    4.7742    4.2622    0.0000 H   0  0  0  0  0  0  0  0  0  0  0  0
   10.0497   -1.0078    0.0000 H   0  0  0  0  0  0  0  0  0  0  0  0
   10.3430    1.7827    0.0000 H   0  0  0  0  0  0  0  0  0  0  0  0
   11.0020    0.3028    0.0000 H   0  0  0  0  0  0  0  0  0  0  0  0
    1.8084    4.2965    0.0000 H   0  0  0  0  0  0  0  0  0  0  0  0
    1.4103    3.5152    0.0000 H   0  0  0  0  0  0  0  0  0  0  0  0
    2.1916    3.1172    0.0000 H   0  0  0  0  0  0  0  0  0  0  0  0
  1 15  2  0  0  0  0 
  2 32  1  0  0  0  0 
  2 36  1  0  0  0  0 
  3  7  1  0  0  0  0 
  3 13  1  0  0  0  0 
  3 15  1  0  0  0  0 
  4 10  1  0  0  0  0 
  4 12  1  0  0  0  0 
  4 17  1  0  0  0  0 
  5  6  1  0  0  0  0 
  5 23  1  0  0  0  0 
  5 25  1  0  0  0  0 
  6 22  2  0  0  0  0 
  7  8  1  0  0  0  0 
  7  9  1  0  0  0  0 
  7 37  1  6  0  0  0 
  8 10  1  0  0  0  0 
  8 11  1  0  0  0  0 
  8 38  1  1  0  0  0 
  9 12  1  0  0  0  0 
  9 39  1  0  0  0  0 
  9 40  1  0  0  0  0 
 10 41  1  0  0  0  0 
 10 42  1  0  0  0  0 
 11 13  2  0  0  0  0 
 11 14  1  0  0  0  0 
 12 43  1  0  0  0  0 
 12 44  1  0  0  0  0 
 13 16  1  0  0  0  0 
 14 18  2  0  0  0  0 
 14 45  1  0  0  0  0 
 15 20  1  0  0  0  0 
 16 19  2  0  0  0  0 
 16 46  1  0  0  0  0 
 17 47  1  0  0  0  0 
 17 48  1  0  0  0  0 
 17 49  1  0  0  0  0 
 18 19  1  0  0  0  0 
 18 21  1  0  0  0  0 
 19 50  1  0  0  0  0 
 20 22  1  0  0  0  0 
 20 23  2  0  0  0  0 
 21 51  1  0  0  0  0 
 21 52  1  0  0  0  0 
 21 53  1  0  0  0  0 
 22 24  1  0  0  0  0 
 23 54  1  0  0  0  0 
 24 26  2  0  0  0  0 
 24 27  1  0  0  0  0 
 25 28  2  0  0  0  0 
 25 29  1  0  0  0  0 
 26 30  1  0  0  0  0 
 26 55  1  0  0  0  0 
 27 31  2  0  0  0  0 
 27 56  1  0  0  0  0 
 28 33  1  0  0  0  0 
 28 57  1  0  0  0  0 
 29 34  2  0  0  0  0 
 29 58  1  0  0  0  0 
 30 32  2  0  0  0  0 
 30 59  1  0  0  0  0 
 31 32  1  0  0  0  0 
 31 60  1  0  0  0  0 
 33 35  2  0  0  0  0 
 33 61  1  0  0  0  0 
 34 35  1  0  0  0  0 
 34 62  1  0  0  0  0 
 35 63  1  0  0  0  0 
 36 64  1  0  0  0  0 
 36 65  1  0  0  0  0 
 36 66  1  0  0  0  0 
M  END
> <cdk:Title>
6596816

> <cdk:Remark>
null

> <PUBCHEM_COMPOUND_CID>
6596816

> <PUBCHEM_COMPOUND_CANONICALIZED>
1

> <PUBCHEM_CACTVS_COMPLEXITY>
764

> <PUBCHEM_CACTVS_HBOND_ACCEPTOR>
4

> <PUBCHEM_CACTVS_HBOND_DONOR>
0

> <PUBCHEM_CACTVS_ROTATABLE_BOND>
4

> <PUBCHEM_CACTVS_SUBSKEYS>
AAADceB7sAAAAAAAAAAAAAAAAAAAAWLAAAA8YMEAAAAAAFgB1AAAHgAIAAAADSzBngY+xpMIBACqAzV3VACSDCA1ogAYmCEubNgMJvrE8duEtahkzhHI6ceY2OGOqAACAAACAABQAAQAAAQAAAAAAAAAAA==

> <PUBCHEM_IUPAC_OPENEYE_NAME>
[(4aS,9bS)-2,8-dimethyl-3,4,4a,9b-tetrahydro-1H-pyrido[4,3-b]indol-5-yl]-[3-(4-methoxyphenyl)-1-phenyl-pyrazol-4-yl]methanone

> <PUBCHEM_IUPAC_CAS_NAME>
[(4aS,9bS)-2,8-dimethyl-3,4,4a,9b-tetrahydro-1H-pyrido[4,3-b]indol-5-yl]-[3-(4-methoxyphenyl)-1-phenyl-4-pyrazolyl]methanone

> <PUBCHEM_IUPAC_NAME>
[(4aS,9bS)-2,8-dimethyl-3,4,4a,9b-tetrahydro-1H-pyrido[4,3-b]indol-5-yl]-[3-(4-methoxyphenyl)-1-phenylpyrazol-4-yl]methanone

> <PUBCHEM_IUPAC_SYSTEMATIC_NAME>
[(4aS,9bS)-2,8-dimethyl-3,4,4a,9b-tetrahydro-1H-pyrido[4,3-b]indol-5-yl]-[3-(4-methoxyphenyl)-1-phenyl-pyrazol-4-yl]methanone

> <PUBCHEM_IUPAC_TRADITIONAL_NAME>
[(4aS,9bS)-2,8-dimethyl-3,4,4a,9b-tetrahydro-1H-pyrid[4,3-b]indol-5-yl]-[3-(4-methoxyphenyl)-1-phenyl-pyrazol-4-yl]methanone

> <PUBCHEM_IUPAC_INCHI>
InChI=1S/C30H30N4O2/c1-20-9-14-27-24(17-20)25-18-32(2)16-15-28(25)34(27)30(35)26-19-33(22-7-5-4-6-8-22)31-29(26)21-10-12-23(36-3)13-11-21/h4-14,17,19,25,28H,15-16,18H2,1-3H3/t25-,28+/m1/s1

> <PUBCHEM_IUPAC_INCHIKEY>
CCVGPSSIPPYTFZ-NAKRPHOHSA-N

> <PUBCHEM_XLOGP3_AA>
5

> <PUBCHEM_EXACT_MASS>
478.236876

> <PUBCHEM_MOLECULAR_FORMULA>
C30H30N4O2

> <PUBCHEM_MOLECULAR_WEIGHT>
478.5848

> <PUBCHEM_OPENEYE_CAN_SMILES>
CC1=CC2=C(C=C1)N(C3C2CN(CC3)C)C(=O)C4=CN(N=C4C5=CC=C(C=C5)OC)C6=CC=CC=C6

> <PUBCHEM_OPENEYE_ISO_SMILES>
CC1=CC2=C(C=C1)N([C@@H]3[C@@H]2CN(CC3)C)C(=O)C4=CN(N=C4C5=CC=C(C=C5)OC)C6=CC=CC=C6

> <PUBCHEM_CACTVS_TPSA>
50.6

> <PUBCHEM_MONOISOTOPIC_WEIGHT>
478.236876

> <PUBCHEM_TOTAL_CHARGE>
0

> <PUBCHEM_HEAVY_ATOM_COUNT>
36

> <PUBCHEM_ATOM_DEF_STEREO_COUNT>
2

> <PUBCHEM_ATOM_UDEF_STEREO_COUNT>
0

> <PUBCHEM_BOND_DEF_STEREO_COUNT>
0

> <PUBCHEM_BOND_UDEF_STEREO_COUNT>
0

> <PUBCHEM_ISOTOPIC_ATOM_COUNT>
0

> <PUBCHEM_COMPONENT_COUNT>
1

> <PUBCHEM_CACTVS_TAUTO_COUNT>
1

> <PUBCHEM_COORDINATE_TYPE>
1

> <PUBCHEM_BONDANNOTATIONS>
11  13  8

$$$$
