7582516
  CDK     0926142134

 49 52  0  0  0  0  0  0  0  0999 V2000
    9.0115   -1.5446    0.0000 S   0  0  0  0  0  0  0  0  0  0  0  0
    6.5306   -2.3536    0.0000 S   0  0  0  0  0  0  0  0  0  0  0  0
    9.8205   -2.1323    0.0000 O   0  0  0  0  0  0  0  0  0  0  0  0
    9.8205   -0.9568    0.0000 O   0  0  0  0  0  0  0  0  0  0  0  0
    4.9428   -3.2766    0.0000 O   0  0  0  0  0  0  0  0  0  0  0  0
    3.6473    2.5335    0.0000 O   0  0  0  0  0  0  0  0  0  0  0  0
    2.3090    1.0472    0.0000 O   0  0  0  0  0  0  0  0  0  0  0  0
    6.5306   -0.7355    0.0000 N   0  0  0  0  0  0  0  0  0  0  0  0
    4.9428   -1.5446    0.0000 N   0  0  0  0  0  0  0  0  0  0  0  0
    7.4817   -1.0446    0.0000 C   0  0  2  0  0  0  0  0  0  0  0  0
    7.4817   -2.0446    0.0000 C   0  0  1  0  0  0  0  0  0  0  0  0
    8.4279   -0.7398    0.0000 C   0  0  0  0  0  0  0  0  0  0  0  0
    8.4279   -2.3493    0.0000 C   0  0  0  0  0  0  0  0  0  0  0  0
    5.9428   -1.5446    0.0000 C   0  0  0  0  0  0  0  0  0  0  0  0
    3.4428   -2.4106    0.0000 C   0  0  0  0  0  0  0  0  0  0  0  0
    2.5768   -1.9106    0.0000 C   0  0  0  0  0  0  0  0  0  0  0  0
    2.5768   -2.9106    0.0000 C   0  0  0  0  0  0  0  0  0  0  0  0
    6.2216    0.2155    0.0000 C   0  0  0  0  0  0  0  0  0  0  0  0
    4.4428   -2.4106    0.0000 C   0  0  0  0  0  0  0  0  0  0  0  0
    5.2435    0.4234    0.0000 C   0  0  0  0  0  0  0  0  0  0  0  0
    4.9344    1.3745    0.0000 C   0  0  0  0  0  0  0  0  0  0  0  0
    4.5743   -0.3197    0.0000 C   0  0  0  0  0  0  0  0  0  0  0  0
    3.9563    1.5824    0.0000 C   0  0  0  0  0  0  0  0  0  0  0  0
    3.5962   -0.1118    0.0000 C   0  0  0  0  0  0  0  0  0  0  0  0
    3.2872    0.8393    0.0000 C   0  0  0  0  0  0  0  0  0  0  0  0
    4.3164    3.2766    0.0000 C   0  0  0  0  0  0  0  0  0  0  0  0
    2.0000    1.9982    0.0000 C   0  0  0  0  0  0  0  0  0  0  0  0
    7.4828   -0.1946    0.0000 H   0  0  0  0  0  0  0  0  0  0  0  0
    7.4828   -2.8946    0.0000 H   0  0  0  0  0  0  0  0  0  0  0  0
    8.9653   -0.4306    0.0000 H   0  0  0  0  0  0  0  0  0  0  0  0
    8.1769   -0.1729    0.0000 H   0  0  0  0  0  0  0  0  0  0  0  0
    8.1769   -2.9162    0.0000 H   0  0  0  0  0  0  0  0  0  0  0  0
    8.9653   -2.6585    0.0000 H   0  0  0  0  0  0  0  0  0  0  0  0
    3.6033   -1.8117    0.0000 H   0  0  0  0  0  0  0  0  0  0  0  0
    2.7889   -1.3280    0.0000 H   0  0  0  0  0  0  0  0  0  0  0  0
    1.9662   -1.8029    0.0000 H   0  0  0  0  0  0  0  0  0  0  0  0
    1.9662   -3.0182    0.0000 H   0  0  0  0  0  0  0  0  0  0  0  0
    2.7889   -3.4932    0.0000 H   0  0  0  0  0  0  0  0  0  0  0  0
    6.8356    0.3018    0.0000 H   0  0  0  0  0  0  0  0  0  0  0  0
    6.2432    0.8351    0.0000 H   0  0  0  0  0  0  0  0  0  0  0  0
    5.3493    1.8352    0.0000 H   0  0  0  0  0  0  0  0  0  0  0  0
    4.7659   -0.9094    0.0000 H   0  0  0  0  0  0  0  0  0  0  0  0
    3.1813   -0.5726    0.0000 H   0  0  0  0  0  0  0  0  0  0  0  0
    4.7772    2.8617    0.0000 H   0  0  0  0  0  0  0  0  0  0  0  0
    4.7313    3.7374    0.0000 H   0  0  0  0  0  0  0  0  0  0  0  0
    3.8557    3.6915    0.0000 H   0  0  0  0  0  0  0  0  0  0  0  0
    2.5897    2.1898    0.0000 H   0  0  0  0  0  0  0  0  0  0  0  0
    1.8084    2.5879    0.0000 H   0  0  0  0  0  0  0  0  0  0  0  0
    1.4103    1.8066    0.0000 H   0  0  0  0  0  0  0  0  0  0  0  0
  1  3  2  0  0  0  0 
  1  4  2  0  0  0  0 
  1 12  1  0  0  0  0 
  1 13  1  0  0  0  0 
  2 11  1  0  0  0  0 
  2 14  1  0  0  0  0 
  5 19  2  0  0  0  0 
  6 23  1  0  0  0  0 
  6 26  1  0  0  0  0 
  7 25  1  0  0  0  0 
  7 27  1  0  0  0  0 
  8 10  1  0  0  0  0 
  8 14  1  0  0  0  0 
  8 18  1  0  0  0  0 
  9 14  2  0  0  0  0 
  9 19  1  0  0  0  0 
 10 11  1  0  0  0  0 
 10 12  1  0  0  0  0 
 10 28  1  6  0  0  0 
 11 13  1  0  0  0  0 
 11 29  1  6  0  0  0 
 12 30  1  0  0  0  0 
 12 31  1  0  0  0  0 
 13 32  1  0  0  0  0 
 13 33  1  0  0  0  0 
 15 16  1  0  0  0  0 
 15 17  1  0  0  0  0 
 15 19  1  0  0  0  0 
 15 34  1  0  0  0  0 
 16 17  1  0  0  0  0 
 16 35  1  0  0  0  0 
 16 36  1  0  0  0  0 
 17 37  1  0  0  0  0 
 17 38  1  0  0  0  0 
 18 20  1  0  0  0  0 
 18 39  1  0  0  0  0 
 18 40  1  0  0  0  0 
 20 21  2  0  0  0  0 
 20 22  1  0  0  0  0 
 21 23  1  0  0  0  0 
 21 41  1  0  0  0  0 
 22 24  2  0  0  0  0 
 22 42  1  0  0  0  0 
 23 25  2  0  0  0  0 
 24 25  1  0  0  0  0 
 24 43  1  0  0  0  0 
 26 44  1  0  0  0  0 
 26 45  1  0  0  0  0 
 26 46  1  0  0  0  0 
 27 47  1  0  0  0  0 
 27 48  1  0  0  0  0 
 27 49  1  0  0  0  0 
M  END
> <cdk:Title>
7582516

> <cdk:Remark>
null

> <PUBCHEM_COMPOUND_CID>
7582516

> <PUBCHEM_COMPOUND_CANONICALIZED>
1

> <PUBCHEM_CACTVS_COMPLEXITY>
716

> <PUBCHEM_CACTVS_HBOND_ACCEPTOR>
6

> <PUBCHEM_CACTVS_HBOND_DONOR>
0

> <PUBCHEM_CACTVS_ROTATABLE_BOND>
5

> <PUBCHEM_CACTVS_SUBSKEYS>
AAADceB7OABgAAAAAAAAAAAAGAAAAWJAAAAwAAAAAAAWAAABAAAAHgQAAAAADSzF2AazBoMABAqoAiFSNHDCGAFgIBAJiAEOjIgNJjKkuRuEMCpkwBGqqAew0BIOIAABAAAAQABAAAIAAACAAAAAAAAAAA==

> <PUBCHEM_IUPAC_OPENEYE_NAME>
N-[(3aS,6aS)-3-[(3,4-dimethoxyphenyl)methyl]-5,5-dioxo-3a,4,6,6a-tetrahydrothieno[3,4-d]thiazol-2-ylidene]cyclopropanecarboxamide

> <PUBCHEM_IUPAC_CAS_NAME>
N-[(3aS,6aS)-3-[(3,4-dimethoxyphenyl)methyl]-5,5-dioxo-3a,4,6,6a-tetrahydrothieno[3,4-d]thiazol-2-ylidene]cyclopropanecarboxamide

> <PUBCHEM_IUPAC_NAME>
N-[(3aS,6aS)-3-[(3,4-dimethoxyphenyl)methyl]-5,5-dioxo-3a,4,6,6a-tetrahydrothieno[3,4-d][1,3]thiazol-2-ylidene]cyclopropanecarboxamide

> <PUBCHEM_IUPAC_SYSTEMATIC_NAME>
N-[(3aS,6aS)-3-[(3,4-dimethoxyphenyl)methyl]-5,5-bis(oxidanylidene)-3a,4,6,6a-tetrahydrothieno[3,4-d][1,3]thiazol-2-ylidene]cyclopropanecarboxamide

> <PUBCHEM_IUPAC_TRADITIONAL_NAME>
N-[(3aS,6aS)-5,5-diketo-3-veratryl-3a,4,6,6a-tetrahydrothieno[3,4-d]thiazol-2-ylidene]cyclopropanecarboxamide

> <PUBCHEM_IUPAC_INCHI>
InChI=1S/C18H22N2O5S2/c1-24-14-6-3-11(7-15(14)25-2)8-20-13-9-27(22,23)10-16(13)26-18(20)19-17(21)12-4-5-12/h3,6-7,12-13,16H,4-5,8-10H2,1-2H3/t13-,16+/m0/s1

> <PUBCHEM_IUPAC_INCHIKEY>
PISDFKBJTJLVJV-XJKSGUPXSA-N

> <PUBCHEM_XLOGP3_AA>
1.7

> <PUBCHEM_EXACT_MASS>
410.097014

> <PUBCHEM_MOLECULAR_FORMULA>
C18H22N2O5S2

> <PUBCHEM_MOLECULAR_WEIGHT>
410.50768

> <PUBCHEM_OPENEYE_CAN_SMILES>
COC1=C(C=C(C=C1)CN2C3CS(=O)(=O)CC3SC2=NC(=O)C4CC4)OC

> <PUBCHEM_OPENEYE_ISO_SMILES>
COC1=C(C=C(C=C1)CN2[C@H]3CS(=O)(=O)C[C@H]3SC2=NC(=O)C4CC4)OC

> <PUBCHEM_CACTVS_TPSA>
119

> <PUBCHEM_MONOISOTOPIC_WEIGHT>
410.097014

> <PUBCHEM_TOTAL_CHARGE>
0

> <PUBCHEM_HEAVY_ATOM_COUNT>
27

> <PUBCHEM_ATOM_DEF_STEREO_COUNT>
2

> <PUBCHEM_ATOM_UDEF_STEREO_COUNT>
0

> <PUBCHEM_BOND_DEF_STEREO_COUNT>
0

> <PUBCHEM_BOND_UDEF_STEREO_COUNT>
0

> <PUBCHEM_ISOTOPIC_ATOM_COUNT>
0

> <PUBCHEM_COMPONENT_COUNT>
1

> <PUBCHEM_CACTVS_TAUTO_COUNT>
1

> <PUBCHEM_COORDINATE_TYPE>
1

> <PUBCHEM_BONDANNOTATIONS>
10  28  6

$$$$
