54002944
  CDK     0104151102

 35 36  0  0  0  0  0  0  0  0999 V2000
    2.0000    0.1682    0.0000 O   0  0  0  0  0  0  0  0  0  0  0  0
    3.7320    0.1682    0.0000 C   0  0  3  0  0  0  0  0  0  0  0  0
    3.7320    1.1682    0.0000 C   0  0  0  0  0  0  0  0  0  0  0  0
    4.5981    1.6682    0.0000 C   0  0  0  0  0  0  0  0  0  0  0  0
    4.7026    2.6627    0.0000 C   0  0  0  0  0  0  0  0  0  0  0  0
    5.6808    2.8706    0.0000 C   0  0  0  0  0  0  0  0  0  0  0  0
    6.1808    2.0046    0.0000 C   0  0  0  0  0  0  0  0  0  0  0  0
    2.8660   -1.3318    0.0000 C   0  0  0  0  0  0  0  0  0  0  0  0
    3.6750   -1.9196    0.0000 C   0  0  0  0  0  0  0  0  0  0  0  0
    2.8660   -0.3318    0.0000 C   0  0  0  0  0  0  0  0  0  0  0  0
    5.5116    1.2615    0.0000 C   0  0  0  0  0  0  0  0  0  0  0  0
    3.3660   -2.8706    0.0000 C   0  0  0  0  0  0  0  0  0  0  0  0
    2.3660   -2.8706    0.0000 C   0  0  0  0  0  0  0  0  0  0  0  0
    2.0570   -1.9196    0.0000 C   0  0  0  0  0  0  0  0  0  0  0  0
    4.5981   -0.3318    0.0000 C   0  0  0  0  0  0  0  0  0  0  0  0
    3.7320   -0.4518    0.0000 H   0  0  0  0  0  0  0  0  0  0  0  0
    3.5200    1.7508    0.0000 H   0  0  0  0  0  0  0  0  0  0  0  0
    3.1215    1.0605    0.0000 H   0  0  0  0  0  0  0  0  0  0  0  0
    4.6378    3.2793    0.0000 H   0  0  0  0  0  0  0  0  0  0  0  0
    4.0826    2.6627    0.0000 H   0  0  0  0  0  0  0  0  0  0  0  0
    6.2472    3.1228    0.0000 H   0  0  0  0  0  0  0  0  0  0  0  0
    5.4892    3.4603    0.0000 H   0  0  0  0  0  0  0  0  0  0  0  0
    6.5956    1.5439    0.0000 H   0  0  0  0  0  0  0  0  0  0  0  0
    6.6823    2.3690    0.0000 H   0  0  0  0  0  0  0  0  0  0  0  0
    4.2414   -2.1718    0.0000 H   0  0  0  0  0  0  0  0  0  0  0  0
    3.9850   -1.3826    0.0000 H   0  0  0  0  0  0  0  0  0  0  0  0
    5.6405    0.6550    0.0000 H   0  0  0  0  0  0  0  0  0  0  0  0
    3.3012   -3.4872    0.0000 H   0  0  0  0  0  0  0  0  0  0  0  0
    3.9725   -2.9995    0.0000 H   0  0  0  0  0  0  0  0  0  0  0  0
    1.7596   -2.9995    0.0000 H   0  0  0  0  0  0  0  0  0  0  0  0
    2.4308   -3.4872    0.0000 H   0  0  0  0  0  0  0  0  0  0  0  0
    1.4674   -1.7280    0.0000 H   0  0  0  0  0  0  0  0  0  0  0  0
    4.2881   -0.8687    0.0000 H   0  0  0  0  0  0  0  0  0  0  0  0
    5.1350   -0.6418    0.0000 H   0  0  0  0  0  0  0  0  0  0  0  0
    4.9081    0.2051    0.0000 H   0  0  0  0  0  0  0  0  0  0  0  0
  1 10  2  0  0  0  0 
  2  3  1  0  0  0  0 
  2 10  1  0  0  0  0 
  2 15  1  0  0  0  0 
  2 16  1  0  0  0  0 
  3  4  1  0  0  0  0 
  3 17  1  0  0  0  0 
  3 18  1  0  0  0  0 
  4  5  1  0  0  0  0 
  4 11  2  0  0  0  0 
  5  6  1  0  0  0  0 
  5 19  1  0  0  0  0 
  5 20  1  0  0  0  0 
  6  7  1  0  0  0  0 
  6 21  1  0  0  0  0 
  6 22  1  0  0  0  0 
  7 11  1  0  0  0  0 
  7 23  1  0  0  0  0 
  7 24  1  0  0  0  0 
  8  9  1  0  0  0  0 
  8 10  1  0  0  0  0 
  8 14  2  0  0  0  0 
  9 12  1  0  0  0  0 
  9 25  1  0  0  0  0 
  9 26  1  0  0  0  0 
 11 27  1  0  0  0  0 
 12 13  1  0  0  0  0 
 12 28  1  0  0  0  0 
 12 29  1  0  0  0  0 
 13 14  1  0  0  0  0 
 13 30  1  0  0  0  0 
 13 31  1  0  0  0  0 
 14 32  1  0  0  0  0 
 15 33  1  0  0  0  0 
 15 34  1  0  0  0  0 
 15 35  1  0  0  0  0 
M  END
> <cdk:Title>
54002944

> <cdk:Remark>
null

> <PUBCHEM_COMPOUND_CID>
54002944

> <PUBCHEM_COMPOUND_CANONICALIZED>
1

> <PUBCHEM_CACTVS_COMPLEXITY>
309

> <PUBCHEM_CACTVS_HBOND_ACCEPTOR>
1

> <PUBCHEM_CACTVS_HBOND_DONOR>
0

> <PUBCHEM_CACTVS_ROTATABLE_BOND>
4

> <PUBCHEM_CACTVS_SUBSKEYS>
AAADceBwIAAAAAAAAAAAAAAAAAAAAQIAAAAAAAAAAAAAAAAAAAAAGgAAAAAADQSAgAACAAAAAACIAqBSAAAAAAAgAAAACAEAAEgAABIAAQAAAAAAgAAIAYMIiMCOAAAAAAAAAAAAAAAAAAAAAAAAAAAAAA==

> <PUBCHEM_IUPAC_OPENEYE_NAME>
1,3-di(cyclopenten-1-yl)-2-methyl-propan-1-one

> <PUBCHEM_IUPAC_CAS_NAME>
1,3-bis(1-cyclopentenyl)-2-methyl-1-propanone

> <PUBCHEM_IUPAC_NAME>
1,3-di(cyclopenten-1-yl)-2-methylpropan-1-one

> <PUBCHEM_IUPAC_SYSTEMATIC_NAME>
1,3-di(cyclopenten-1-yl)-2-methyl-propan-1-one

> <PUBCHEM_IUPAC_TRADITIONAL_NAME>
1,3-di(cyclopenten-1-yl)-2-methyl-propan-1-one

> <PUBCHEM_IUPAC_INCHI>
InChI=1S/C14H20O/c1-11(10-12-6-2-3-7-12)14(15)13-8-4-5-9-13/h6,8,11H,2-5,7,9-10H2,1H3

> <PUBCHEM_IUPAC_INCHIKEY>
JTJULRWMVWSIOJ-UHFFFAOYSA-N

> <PUBCHEM_XLOGP3_AA>
3.3

> <PUBCHEM_EXACT_MASS>
204.151415

> <PUBCHEM_MOLECULAR_FORMULA>
C14H20O

> <PUBCHEM_MOLECULAR_WEIGHT>
204.308

> <PUBCHEM_OPENEYE_CAN_SMILES>
CC(CC1=CCCC1)C(=O)C2=CCCC2

> <PUBCHEM_OPENEYE_ISO_SMILES>
CC(CC1=CCCC1)C(=O)C2=CCCC2

> <PUBCHEM_CACTVS_TPSA>
17.1

> <PUBCHEM_MONOISOTOPIC_WEIGHT>
204.151415

> <PUBCHEM_TOTAL_CHARGE>
0

> <PUBCHEM_HEAVY_ATOM_COUNT>
15

> <PUBCHEM_ATOM_DEF_STEREO_COUNT>
0

> <PUBCHEM_ATOM_UDEF_STEREO_COUNT>
1

> <PUBCHEM_BOND_DEF_STEREO_COUNT>
0

> <PUBCHEM_BOND_UDEF_STEREO_COUNT>
0

> <PUBCHEM_ISOTOPIC_ATOM_COUNT>
0

> <PUBCHEM_COMPONENT_COUNT>
1

> <PUBCHEM_CACTVS_TAUTO_COUNT>
5

> <PUBCHEM_COORDINATE_TYPE>
1

> <PUBCHEM_BONDANNOTATIONS>
2  15  3

$$$$
