17725426
  CDK     1227140956

 75 78  0  0  0  0  0  0  0  0999 V2000
    3.8080    7.4920    0.0000 Br  0  0  0  0  0  0  0  0  0  0  0  0
    7.2682   -2.9920    0.0000 S   0  0  0  0  0  0  0  0  0  0  0  0
    8.2682   -2.9920    0.0000 O   0  0  0  0  0  0  0  0  0  0  0  0
    6.2682   -2.9920    0.0000 O   0  0  0  0  0  0  0  0  0  0  0  0
    5.5361   -5.9920    0.0000 O   0  0  0  0  0  0  0  0  0  0  0  0
    7.2682   -6.9920    0.0000 O   0  0  0  0  0  0  0  0  0  0  0  0
    7.2682    0.0080    0.0000 O   0  0  0  0  0  0  0  0  0  0  0  0
    7.2682   -1.9920    0.0000 N   0  0  3  0  0  0  0  0  0  0  0  0
    4.1701    4.0469    0.0000 N   0  0  0  0  0  0  0  0  0  0  0  0
    5.5361    0.0080    0.0000 N   0  0  0  0  0  0  0  0  0  0  0  0
    5.5361    1.0080    0.0000 N   0  0  0  0  0  0  0  0  0  0  0  0
    8.1342   -1.4920    0.0000 C   0  0  0  0  0  0  0  0  0  0  0  0
    6.4021   -1.4920    0.0000 C   0  0  0  0  0  0  0  0  0  0  0  0
    3.8611    3.0958    0.0000 C   0  0  0  0  0  0  0  0  0  0  0  0
    7.2682   -3.9920    0.0000 C   0  0  0  0  0  0  0  0  0  0  0  0
    5.1701    4.0469    0.0000 C   0  0  0  0  0  0  0  0  0  0  0  0
    4.6701    2.5080    0.0000 C   0  0  0  0  0  0  0  0  0  0  0  0
    9.0002   -1.9920    0.0000 C   0  0  0  0  0  0  0  0  0  0  0  0
    8.1342   -0.4920    0.0000 C   0  0  0  0  0  0  0  0  0  0  0  0
    5.4791    3.0958    0.0000 C   0  0  0  0  0  0  0  0  0  0  0  0
    9.8663   -1.4920    0.0000 C   0  0  0  0  0  0  0  0  0  0  0  0
    9.0002    0.0080    0.0000 C   0  0  0  0  0  0  0  0  0  0  0  0
    3.5823    4.8559    0.0000 C   0  0  0  0  0  0  0  0  0  0  0  0
    9.8663   -0.4920    0.0000 C   0  0  0  0  0  0  0  0  0  0  0  0
    6.4021   -0.4920    0.0000 C   0  0  0  0  0  0  0  0  0  0  0  0
    6.4021   -4.4920    0.0000 C   0  0  0  0  0  0  0  0  0  0  0  0
    2.9100    2.7868    0.0000 C   0  0  0  0  0  0  0  0  0  0  0  0
    8.1342   -4.4920    0.0000 C   0  0  0  0  0  0  0  0  0  0  0  0
    5.7579    4.8559    0.0000 C   0  0  0  0  0  0  0  0  0  0  0  0
    4.6701    1.5080    0.0000 C   0  0  0  0  0  0  0  0  0  0  0  0
    6.4021   -5.4920    0.0000 C   0  0  0  0  0  0  0  0  0  0  0  0
   10.7323   -1.9920    0.0000 C   0  0  0  0  0  0  0  0  0  0  0  0
    9.0002    1.0080    0.0000 C   0  0  0  0  0  0  0  0  0  0  0  0
    8.1342   -5.4920    0.0000 C   0  0  0  0  0  0  0  0  0  0  0  0
    3.9890    5.7694    0.0000 C   0  0  0  0  0  0  0  0  0  0  0  0
    2.5878    4.7514    0.0000 C   0  0  0  0  0  0  0  0  0  0  0  0
    7.2682   -5.9920    0.0000 C   0  0  0  0  0  0  0  0  0  0  0  0
    3.4013    6.5784    0.0000 C   0  0  0  0  0  0  0  0  0  0  0  0
    2.0000    5.5604    0.0000 C   0  0  0  0  0  0  0  0  0  0  0  0
    2.4067    6.4739    0.0000 C   0  0  0  0  0  0  0  0  0  0  0  0
    4.6701   -5.4920    0.0000 C   0  0  0  0  0  0  0  0  0  0  0  0
    8.1342   -7.4920    0.0000 C   0  0  0  0  0  0  0  0  0  0  0  0
    5.7916   -1.3843    0.0000 H   0  0  0  0  0  0  0  0  0  0  0  0
    6.1901   -2.0746    0.0000 H   0  0  0  0  0  0  0  0  0  0  0  0
    9.0002   -2.6120    0.0000 H   0  0  0  0  0  0  0  0  0  0  0  0
    7.5973   -0.1820    0.0000 H   0  0  0  0  0  0  0  0  0  0  0  0
    6.0688    2.9042    0.0000 H   0  0  0  0  0  0  0  0  0  0  0  0
   10.4032   -0.1820    0.0000 H   0  0  0  0  0  0  0  0  0  0  0  0
    5.8652   -4.1820    0.0000 H   0  0  0  0  0  0  0  0  0  0  0  0
    2.7184    3.3764    0.0000 H   0  0  0  0  0  0  0  0  0  0  0  0
    2.3204    2.5952    0.0000 H   0  0  0  0  0  0  0  0  0  0  0  0
    3.1016    2.1971    0.0000 H   0  0  0  0  0  0  0  0  0  0  0  0
    8.6711   -4.1820    0.0000 H   0  0  0  0  0  0  0  0  0  0  0  0
    6.2595    4.4915    0.0000 H   0  0  0  0  0  0  0  0  0  0  0  0
    6.1223    5.3575    0.0000 H   0  0  0  0  0  0  0  0  0  0  0  0
    5.2563    5.2203    0.0000 H   0  0  0  0  0  0  0  0  0  0  0  0
    4.1332    1.1980    0.0000 H   0  0  0  0  0  0  0  0  0  0  0  0
   10.4223   -2.5289    0.0000 H   0  0  0  0  0  0  0  0  0  0  0  0
   11.2692   -2.3020    0.0000 H   0  0  0  0  0  0  0  0  0  0  0  0
   11.0423   -1.4550    0.0000 H   0  0  0  0  0  0  0  0  0  0  0  0
    9.6202    1.0080    0.0000 H   0  0  0  0  0  0  0  0  0  0  0  0
    9.0002    1.6280    0.0000 H   0  0  0  0  0  0  0  0  0  0  0  0
    8.3802    1.0080    0.0000 H   0  0  0  0  0  0  0  0  0  0  0  0
    8.6711   -5.8020    0.0000 H   0  0  0  0  0  0  0  0  0  0  0  0
    4.6056    5.8342    0.0000 H   0  0  0  0  0  0  0  0  0  0  0  0
    2.3356    4.1850    0.0000 H   0  0  0  0  0  0  0  0  0  0  0  0
    4.9992   -0.3020    0.0000 H   0  0  0  0  0  0  0  0  0  0  0  0
    1.3834    5.4956    0.0000 H   0  0  0  0  0  0  0  0  0  0  0  0
    2.0423    6.9755    0.0000 H   0  0  0  0  0  0  0  0  0  0  0  0
    4.9801   -4.9550    0.0000 H   0  0  0  0  0  0  0  0  0  0  0  0
    4.1332   -5.1820    0.0000 H   0  0  0  0  0  0  0  0  0  0  0  0
    4.3601   -6.0289    0.0000 H   0  0  0  0  0  0  0  0  0  0  0  0
    7.8242   -8.0289    0.0000 H   0  0  0  0  0  0  0  0  0  0  0  0
    8.6711   -7.8020    0.0000 H   0  0  0  0  0  0  0  0  0  0  0  0
    8.4442   -6.9550    0.0000 H   0  0  0  0  0  0  0  0  0  0  0  0
  1 38  1  0  0  0  0 
  2  3  2  0  0  0  0 
  2  4  2  0  0  0  0 
  2  8  1  0  0  0  0 
  2 15  1  0  0  0  0 
  5 31  1  0  0  0  0 
  5 41  1  0  0  0  0 
  6 37  1  0  0  0  0 
  6 42  1  0  0  0  0 
  7 25  2  0  0  0  0 
  8 12  1  0  0  0  0 
  8 13  1  0  0  0  0 
  9 14  1  0  0  0  0 
  9 16  1  0  0  0  0 
  9 23  1  0  0  0  0 
 10 11  1  0  0  0  0 
 10 25  1  0  0  0  0 
 10 67  1  0  0  0  0 
 11 30  2  0  0  0  0 
 12 18  2  0  0  0  0 
 12 19  1  0  0  0  0 
 13 25  1  0  0  0  0 
 13 43  1  0  0  0  0 
 13 44  1  0  0  0  0 
 14 17  2  0  0  0  0 
 14 27  1  0  0  0  0 
 15 26  2  0  0  0  0 
 15 28  1  0  0  0  0 
 16 20  2  0  0  0  0 
 16 29  1  0  0  0  0 
 17 20  1  0  0  0  0 
 17 30  1  0  0  0  0 
 18 21  1  0  0  0  0 
 18 45  1  0  0  0  0 
 19 22  2  0  0  0  0 
 19 46  1  0  0  0  0 
 20 47  1  0  0  0  0 
 21 24  2  0  0  0  0 
 21 32  1  0  0  0  0 
 22 24  1  0  0  0  0 
 22 33  1  0  0  0  0 
 23 35  2  0  0  0  0 
 23 36  1  0  0  0  0 
 24 48  1  0  0  0  0 
 26 31  1  0  0  0  0 
 26 49  1  0  0  0  0 
 27 50  1  0  0  0  0 
 27 51  1  0  0  0  0 
 27 52  1  0  0  0  0 
 28 34  2  0  0  0  0 
 28 53  1  0  0  0  0 
 29 54  1  0  0  0  0 
 29 55  1  0  0  0  0 
 29 56  1  0  0  0  0 
 30 57  1  0  0  0  0 
 31 37  2  0  0  0  0 
 32 58  1  0  0  0  0 
 32 59  1  0  0  0  0 
 32 60  1  0  0  0  0 
 33 61  1  0  0  0  0 
 33 62  1  0  0  0  0 
 33 63  1  0  0  0  0 
 34 37  1  0  0  0  0 
 34 64  1  0  0  0  0 
 35 38  1  0  0  0  0 
 35 65  1  0  0  0  0 
 36 39  2  0  0  0  0 
 36 66  1  0  0  0  0 
 38 40  2  0  0  0  0 
 39 40  1  0  0  0  0 
 39 68  1  0  0  0  0 
 40 69  1  0  0  0  0 
 41 70  1  0  0  0  0 
 41 71  1  0  0  0  0 
 41 72  1  0  0  0  0 
 42 73  1  0  0  0  0 
 42 74  1  0  0  0  0 
 42 75  1  0  0  0  0 
M  END
> <cdk:Title>
17725426

> <cdk:Remark>
null

> <PUBCHEM_COMPOUND_CID>
17725426

> <PUBCHEM_COMPOUND_CANONICALIZED>
1

> <PUBCHEM_CACTVS_COMPLEXITY>
1020

> <PUBCHEM_CACTVS_HBOND_ACCEPTOR>
7

> <PUBCHEM_CACTVS_HBOND_DONOR>
1

> <PUBCHEM_CACTVS_ROTATABLE_BOND>
10

> <PUBCHEM_CACTVS_SUBSKEYS>
AAADcfB7uABAEAAAAAAAAAAAAAAAAWAAAAAwYMAAAAAAAAAB1AAAHgRYQAABrAzB3gYyx5NuFAKoAzVzVHDSiDAhIiQamDi+7LgNZuLEsbuUMCpk2BHK6heQwEAOAIACRAEAQAABAASIAgCAAAAAAAAAAA==

> <PUBCHEM_IUPAC_OPENEYE_NAME>
N-[(E)-[1-(3-bromophenyl)-2,5-dimethyl-pyrrol-3-yl]methyleneamino]-2-(N-(3,4-dimethoxyphenyl)sulfonyl-3,5-dimethyl-anilino)acetamide

> <PUBCHEM_IUPAC_CAS_NAME>
N-[(E)-[1-(3-bromophenyl)-2,5-dimethyl-3-pyrrolyl]methylideneamino]-2-(N-(3,4-dimethoxyphenyl)sulfonyl-3,5-dimethylanilino)acetamide

> <PUBCHEM_IUPAC_NAME>
N-[(E)-[1-(3-bromophenyl)-2,5-dimethylpyrrol-3-yl]methylideneamino]-2-(N-(3,4-dimethoxyphenyl)sulfonyl-3,5-dimethylanilino)acetamide

> <PUBCHEM_IUPAC_SYSTEMATIC_NAME>
N-[(E)-[1-(3-bromophenyl)-2,5-dimethyl-pyrrol-3-yl]methylideneamino]-2-[(3,4-dimethoxyphenyl)sulfonyl-(3,5-dimethylphenyl)amino]ethanamide

> <PUBCHEM_IUPAC_TRADITIONAL_NAME>
N-[(E)-[1-(3-bromophenyl)-2,5-dimethyl-pyrrol-3-yl]methyleneamino]-2-(N-(3,4-dimethoxyphenyl)sulfonyl-3,5-dimethyl-anilino)acetamide

> <PUBCHEM_IUPAC_INCHI>
InChI=1S/C31H33BrN4O5S/c1-20-12-21(2)14-27(13-20)35(42(38,39)28-10-11-29(40-5)30(17-28)41-6)19-31(37)34-33-18-24-15-22(3)36(23(24)4)26-9-7-8-25(32)16-26/h7-18H,19H2,1-6H3,(H,34,37)/b33-18+

> <PUBCHEM_IUPAC_INCHIKEY>
HVECWJUKUZHZAD-DPNNOFEESA-N

> <PUBCHEM_XLOGP3_AA>
6.2

> <PUBCHEM_EXACT_MASS>
652.135503

> <PUBCHEM_MOLECULAR_FORMULA>
C31H33BrN4O5S

> <PUBCHEM_MOLECULAR_WEIGHT>
653.58652

> <PUBCHEM_OPENEYE_CAN_SMILES>
CC1=CC(=CC(=C1)N(CC(=O)NN=CC2=C(N(C(=C2)C)C3=CC(=CC=C3)Br)C)S(=O)(=O)C4=CC(=C(C=C4)OC)OC)C

> <PUBCHEM_OPENEYE_ISO_SMILES>
CC1=CC(=CC(=C1)N(CC(=O)N/N=C/C2=C(N(C(=C2)C)C3=CC(=CC=C3)Br)C)S(=O)(=O)C4=CC(=C(C=C4)OC)OC)C

> <PUBCHEM_CACTVS_TPSA>
111

> <PUBCHEM_MONOISOTOPIC_WEIGHT>
652.135503

> <PUBCHEM_TOTAL_CHARGE>
0

> <PUBCHEM_HEAVY_ATOM_COUNT>
42

> <PUBCHEM_ATOM_DEF_STEREO_COUNT>
0

> <PUBCHEM_ATOM_UDEF_STEREO_COUNT>
0

> <PUBCHEM_BOND_DEF_STEREO_COUNT>
1

> <PUBCHEM_BOND_UDEF_STEREO_COUNT>
0

> <PUBCHEM_ISOTOPIC_ATOM_COUNT>
0

> <PUBCHEM_COMPONENT_COUNT>
1

> <PUBCHEM_CACTVS_TAUTO_COUNT>
2

> <PUBCHEM_COORDINATE_TYPE>
1

> <PUBCHEM_BONDANNOTATIONS>
12  18  8

$$$$
