63131429
  CDK     0104151047

 48 49  0  0  0  0  0  0  0  0999 V2000
    3.5000    1.4330    0.0000 O   0  0  0  0  0  0  0  0  0  0  0  0
    2.6340   -1.7990    0.0000 N   0  0  0  0  0  0  0  0  0  0  0  0
    5.0000    0.5670    0.0000 N   0  0  0  0  0  0  0  0  0  0  0  0
    8.0000    0.5670    0.0000 N   0  0  0  0  0  0  0  0  0  0  0  0
    3.5000   -0.2990    0.0000 C   0  0  3  0  0  0  0  0  0  0  0  0
    4.3660   -0.7990    0.0000 C   0  0  0  0  0  0  0  0  0  0  0  0
    2.6340   -0.7990    0.0000 C   0  0  0  0  0  0  0  0  0  0  0  0
    3.0000    0.5670    0.0000 C   0  0  0  0  0  0  0  0  0  0  0  0
    4.3660   -1.7990    0.0000 C   0  0  0  0  0  0  0  0  0  0  0  0
    4.0000    0.5670    0.0000 C   0  0  0  0  0  0  0  0  0  0  0  0
    3.5000   -2.2990    0.0000 C   0  0  0  0  0  0  0  0  0  0  0  0
    2.0000    0.5670    0.0000 C   0  0  0  0  0  0  0  0  0  0  0  0
    5.5000   -0.2990    0.0000 C   0  0  0  0  0  0  0  0  0  0  0  0
    5.5000    1.4330    0.0000 C   0  0  0  0  0  0  0  0  0  0  0  0
    6.5000   -0.2990    0.0000 C   0  0  0  0  0  0  0  0  0  0  0  0
    5.0000   -1.1651    0.0000 C   0  0  0  0  0  0  0  0  0  0  0  0
    6.5000    1.4330    0.0000 C   0  0  0  0  0  0  0  0  0  0  0  0
    7.0000    2.2990    0.0000 C   0  0  0  0  0  0  0  0  0  0  0  0
    7.0000    0.5670    0.0000 C   0  0  0  0  0  0  0  0  0  0  0  0
    8.0000    2.2990    0.0000 C   0  0  0  0  0  0  0  0  0  0  0  0
    8.5000    1.4330    0.0000 C   0  0  0  0  0  0  0  0  0  0  0  0
    4.9766   -0.9067    0.0000 H   0  0  0  0  0  0  0  0  0  0  0  0
    4.5781   -0.2164    0.0000 H   0  0  0  0  0  0  0  0  0  0  0  0
    2.4219   -0.2164    0.0000 H   0  0  0  0  0  0  0  0  0  0  0  0
    2.0234   -0.9067    0.0000 H   0  0  0  0  0  0  0  0  0  0  0  0
    3.5826    0.7790    0.0000 H   0  0  0  0  0  0  0  0  0  0  0  0
    2.8923    1.1776    0.0000 H   0  0  0  0  0  0  0  0  0  0  0  0
    4.5781   -2.3816    0.0000 H   0  0  0  0  0  0  0  0  0  0  0  0
    4.9766   -1.6914    0.0000 H   0  0  0  0  0  0  0  0  0  0  0  0
    3.1015   -2.7740    0.0000 H   0  0  0  0  0  0  0  0  0  0  0  0
    3.8985   -2.7740    0.0000 H   0  0  0  0  0  0  0  0  0  0  0  0
    2.0970   -2.1090    0.0000 H   0  0  0  0  0  0  0  0  0  0  0  0
    2.0000    1.1870    0.0000 H   0  0  0  0  0  0  0  0  0  0  0  0
    1.3800    0.5670    0.0000 H   0  0  0  0  0  0  0  0  0  0  0  0
    2.0000   -0.0530    0.0000 H   0  0  0  0  0  0  0  0  0  0  0  0
    5.8100    0.2379    0.0000 H   0  0  0  0  0  0  0  0  0  0  0  0
    5.6077    2.0436    0.0000 H   0  0  0  0  0  0  0  0  0  0  0  0
    4.9174    1.6451    0.0000 H   0  0  0  0  0  0  0  0  0  0  0  0
    6.5000   -0.9190    0.0000 H   0  0  0  0  0  0  0  0  0  0  0  0
    7.1200   -0.2990    0.0000 H   0  0  0  0  0  0  0  0  0  0  0  0
    6.5000    0.3210    0.0000 H   0  0  0  0  0  0  0  0  0  0  0  0
    4.4631   -0.8551    0.0000 H   0  0  0  0  0  0  0  0  0  0  0  0
    4.6900   -1.7020    0.0000 H   0  0  0  0  0  0  0  0  0  0  0  0
    5.5369   -1.4751    0.0000 H   0  0  0  0  0  0  0  0  0  0  0  0
    6.6900    2.8360    0.0000 H   0  0  0  0  0  0  0  0  0  0  0  0
    6.6900    0.0301    0.0000 H   0  0  0  0  0  0  0  0  0  0  0  0
    8.3100    2.8360    0.0000 H   0  0  0  0  0  0  0  0  0  0  0  0
    9.1200    1.4330    0.0000 H   0  0  0  0  0  0  0  0  0  0  0  0
  1 10  2  0  0  0  0 
  2  7  1  0  0  0  0 
  2 11  1  0  0  0  0 
  2 32  1  0  0  0  0 
  3 10  1  0  0  0  0 
  3 13  1  0  0  0  0 
  3 14  1  0  0  0  0 
  4 19  1  0  0  0  0 
  4 21  2  0  0  0  0 
  5  6  1  0  0  0  0 
  5  7  1  0  0  0  0 
  5  8  1  0  0  0  0 
  5 10  1  0  0  0  0 
  6  9  1  0  0  0  0 
  6 22  1  0  0  0  0 
  6 23  1  0  0  0  0 
  7 24  1  0  0  0  0 
  7 25  1  0  0  0  0 
  8 12  1  0  0  0  0 
  8 26  1  0  0  0  0 
  8 27  1  0  0  0  0 
  9 11  1  0  0  0  0 
  9 28  1  0  0  0  0 
  9 29  1  0  0  0  0 
 11 30  1  0  0  0  0 
 11 31  1  0  0  0  0 
 12 33  1  0  0  0  0 
 12 34  1  0  0  0  0 
 12 35  1  0  0  0  0 
 13 15  1  0  0  0  0 
 13 16  1  0  0  0  0 
 13 36  1  0  0  0  0 
 14 17  1  0  0  0  0 
 14 37  1  0  0  0  0 
 14 38  1  0  0  0  0 
 15 39  1  0  0  0  0 
 15 40  1  0  0  0  0 
 15 41  1  0  0  0  0 
 16 42  1  0  0  0  0 
 16 43  1  0  0  0  0 
 16 44  1  0  0  0  0 
 17 18  1  0  0  0  0 
 17 19  2  0  0  0  0 
 18 20  2  0  0  0  0 
 18 45  1  0  0  0  0 
 19 46  1  0  0  0  0 
 20 21  1  0  0  0  0 
 20 47  1  0  0  0  0 
 21 48  1  0  0  0  0 
M  END
> <cdk:Title>
63131429

> <cdk:Remark>
null

> <PUBCHEM_COMPOUND_CID>
63131429

> <PUBCHEM_COMPOUND_CANONICALIZED>
1

> <PUBCHEM_CACTVS_COMPLEXITY>
345

> <PUBCHEM_CACTVS_HBOND_ACCEPTOR>
3

> <PUBCHEM_CACTVS_HBOND_DONOR>
1

> <PUBCHEM_CACTVS_ROTATABLE_BOND>
5

> <PUBCHEM_CACTVS_SUBSKEYS>
AAADceB7IAAAAAAAAAAAAAAAAAAAAAAAAAAsWAAAAAAAAAABgAAAHgAQAAAADijBmgQ+gJPIEACoAjF3VACCgCAxAiAI2KE4ZJgIIPrA0ZGEIAhglgDIyAcYAQAPAAAAAAAAAAAAAAAAAAAAAAAAAAAAAA==

> <PUBCHEM_IUPAC_OPENEYE_NAME>
3-ethyl-N-isopropyl-N-(3-pyridylmethyl)piperidine-3-carboxamide

> <PUBCHEM_IUPAC_CAS_NAME>
3-ethyl-N-propan-2-yl-N-(3-pyridinylmethyl)-3-piperidinecarboxamide

> <PUBCHEM_IUPAC_NAME>
3-ethyl-N-propan-2-yl-N-(pyridin-3-ylmethyl)piperidine-3-carboxamide

> <PUBCHEM_IUPAC_SYSTEMATIC_NAME>
3-ethyl-N-propan-2-yl-N-(pyridin-3-ylmethyl)piperidine-3-carboxamide

> <PUBCHEM_IUPAC_TRADITIONAL_NAME>
3-ethyl-N-isopropyl-N-(3-pyridylmethyl)nipecotamide

> <PUBCHEM_IUPAC_INCHI>
InChI=1S/C17H27N3O/c1-4-17(8-6-10-19-13-17)16(21)20(14(2)3)12-15-7-5-9-18-11-15/h5,7,9,11,14,19H,4,6,8,10,12-13H2,1-3H3

> <PUBCHEM_IUPAC_INCHIKEY>
UWLSJODYIVBPEB-UHFFFAOYSA-N

> <PUBCHEM_XLOGP3_AA>
1.7

> <PUBCHEM_EXACT_MASS>
289.215412

> <PUBCHEM_MOLECULAR_FORMULA>
C17H27N3O

> <PUBCHEM_MOLECULAR_WEIGHT>
289.41578

> <PUBCHEM_OPENEYE_CAN_SMILES>
CCC1(CCCNC1)C(=O)N(CC2=CN=CC=C2)C(C)C

> <PUBCHEM_OPENEYE_ISO_SMILES>
CCC1(CCCNC1)C(=O)N(CC2=CN=CC=C2)C(C)C

> <PUBCHEM_CACTVS_TPSA>
45.2

> <PUBCHEM_MONOISOTOPIC_WEIGHT>
289.215412

> <PUBCHEM_TOTAL_CHARGE>
0

> <PUBCHEM_HEAVY_ATOM_COUNT>
21

> <PUBCHEM_ATOM_DEF_STEREO_COUNT>
0

> <PUBCHEM_ATOM_UDEF_STEREO_COUNT>
1

> <PUBCHEM_BOND_DEF_STEREO_COUNT>
0

> <PUBCHEM_BOND_UDEF_STEREO_COUNT>
0

> <PUBCHEM_ISOTOPIC_ATOM_COUNT>
0

> <PUBCHEM_COMPONENT_COUNT>
1

> <PUBCHEM_CACTVS_TAUTO_COUNT>
1

> <PUBCHEM_COORDINATE_TYPE>
1

> <PUBCHEM_BONDANNOTATIONS>
17  18  8

$$$$
63131429
  CDK     0104151047

 48 49  0  0  0  0  0  0  0  0999 V2000
    3.5000    1.4330    0.0000 O   0  0  0  0  0  0  0  0  0  0  0  0
    2.6340   -1.7990    0.0000 N   0  0  0  0  0  0  0  0  0  0  0  0
    5.0000    0.5670    0.0000 N   0  0  0  0  0  0  0  0  0  0  0  0
    8.0000    0.5670    0.0000 N   0  0  0  0  0  0  0  0  0  0  0  0
    3.5000   -0.2990    0.0000 C   0  0  3  0  0  0  0  0  0  0  0  0
    4.3660   -0.7990    0.0000 C   0  0  0  0  0  0  0  0  0  0  0  0
    2.6340   -0.7990    0.0000 C   0  0  0  0  0  0  0  0  0  0  0  0
    3.0000    0.5670    0.0000 C   0  0  0  0  0  0  0  0  0  0  0  0
    4.3660   -1.7990    0.0000 C   0  0  0  0  0  0  0  0  0  0  0  0
    4.0000    0.5670    0.0000 C   0  0  0  0  0  0  0  0  0  0  0  0
    3.5000   -2.2990    0.0000 C   0  0  0  0  0  0  0  0  0  0  0  0
    2.0000    0.5670    0.0000 C   0  0  0  0  0  0  0  0  0  0  0  0
    5.5000   -0.2990    0.0000 C   0  0  0  0  0  0  0  0  0  0  0  0
    5.5000    1.4330    0.0000 C   0  0  0  0  0  0  0  0  0  0  0  0
    6.5000   -0.2990    0.0000 C   0  0  0  0  0  0  0  0  0  0  0  0
    5.0000   -1.1651    0.0000 C   0  0  0  0  0  0  0  0  0  0  0  0
    6.5000    1.4330    0.0000 C   0  0  0  0  0  0  0  0  0  0  0  0
    7.0000    2.2990    0.0000 C   0  0  0  0  0  0  0  0  0  0  0  0
    7.0000    0.5670    0.0000 C   0  0  0  0  0  0  0  0  0  0  0  0
    8.0000    2.2990    0.0000 C   0  0  0  0  0  0  0  0  0  0  0  0
    8.5000    1.4330    0.0000 C   0  0  0  0  0  0  0  0  0  0  0  0
    4.9766   -0.9067    0.0000 H   0  0  0  0  0  0  0  0  0  0  0  0
    4.5781   -0.2164    0.0000 H   0  0  0  0  0  0  0  0  0  0  0  0
    2.4219   -0.2164    0.0000 H   0  0  0  0  0  0  0  0  0  0  0  0
    2.0234   -0.9067    0.0000 H   0  0  0  0  0  0  0  0  0  0  0  0
    3.5826    0.7790    0.0000 H   0  0  0  0  0  0  0  0  0  0  0  0
    2.8923    1.1776    0.0000 H   0  0  0  0  0  0  0  0  0  0  0  0
    4.5781   -2.3816    0.0000 H   0  0  0  0  0  0  0  0  0  0  0  0
    4.9766   -1.6914    0.0000 H   0  0  0  0  0  0  0  0  0  0  0  0
    3.1015   -2.7740    0.0000 H   0  0  0  0  0  0  0  0  0  0  0  0
    3.8985   -2.7740    0.0000 H   0  0  0  0  0  0  0  0  0  0  0  0
    2.0970   -2.1090    0.0000 H   0  0  0  0  0  0  0  0  0  0  0  0
    2.0000    1.1870    0.0000 H   0  0  0  0  0  0  0  0  0  0  0  0
    1.3800    0.5670    0.0000 H   0  0  0  0  0  0  0  0  0  0  0  0
    2.0000   -0.0530    0.0000 H   0  0  0  0  0  0  0  0  0  0  0  0
    5.8100    0.2379    0.0000 H   0  0  0  0  0  0  0  0  0  0  0  0
    5.6077    2.0436    0.0000 H   0  0  0  0  0  0  0  0  0  0  0  0
    4.9174    1.6451    0.0000 H   0  0  0  0  0  0  0  0  0  0  0  0
    6.5000   -0.9190    0.0000 H   0  0  0  0  0  0  0  0  0  0  0  0
    7.1200   -0.2990    0.0000 H   0  0  0  0  0  0  0  0  0  0  0  0
    6.5000    0.3210    0.0000 H   0  0  0  0  0  0  0  0  0  0  0  0
    4.4631   -0.8551    0.0000 H   0  0  0  0  0  0  0  0  0  0  0  0
    4.6900   -1.7020    0.0000 H   0  0  0  0  0  0  0  0  0  0  0  0
    5.5369   -1.4751    0.0000 H   0  0  0  0  0  0  0  0  0  0  0  0
    6.6900    2.8360    0.0000 H   0  0  0  0  0  0  0  0  0  0  0  0
    6.6900    0.0301    0.0000 H   0  0  0  0  0  0  0  0  0  0  0  0
    8.3100    2.8360    0.0000 H   0  0  0  0  0  0  0  0  0  0  0  0
    9.1200    1.4330    0.0000 H   0  0  0  0  0  0  0  0  0  0  0  0
  1 10  2  0  0  0  0 
  2  7  1  0  0  0  0 
  2 11  1  0  0  0  0 
  2 32  1  0  0  0  0 
  3 10  1  0  0  0  0 
  3 13  1  0  0  0  0 
  3 14  1  0  0  0  0 
  4 19  1  0  0  0  0 
  4 21  2  0  0  0  0 
  5  6  1  0  0  0  0 
  5  7  1  0  0  0  0 
  5  8  1  0  0  0  0 
  5 10  1  0  0  0  0 
  6  9  1  0  0  0  0 
  6 22  1  0  0  0  0 
  6 23  1  0  0  0  0 
  7 24  1  0  0  0  0 
  7 25  1  0  0  0  0 
  8 12  1  0  0  0  0 
  8 26  1  0  0  0  0 
  8 27  1  0  0  0  0 
  9 11  1  0  0  0  0 
  9 28  1  0  0  0  0 
  9 29  1  0  0  0  0 
 11 30  1  0  0  0  0 
 11 31  1  0  0  0  0 
 12 33  1  0  0  0  0 
 12 34  1  0  0  0  0 
 12 35  1  0  0  0  0 
 13 15  1  0  0  0  0 
 13 16  1  0  0  0  0 
 13 36  1  0  0  0  0 
 14 17  1  0  0  0  0 
 14 37  1  0  0  0  0 
 14 38  1  0  0  0  0 
 15 39  1  0  0  0  0 
 15 40  1  0  0  0  0 
 15 41  1  0  0  0  0 
 16 42  1  0  0  0  0 
 16 43  1  0  0  0  0 
 16 44  1  0  0  0  0 
 17 18  1  0  0  0  0 
 17 19  2  0  0  0  0 
 18 20  2  0  0  0  0 
 18 45  1  0  0  0  0 
 19 46  1  0  0  0  0 
 20 21  1  0  0  0  0 
 20 47  1  0  0  0  0 
 21 48  1  0  0  0  0 
M  END
> <cdk:Title>
63131429

> <cdk:Remark>
null

> <PUBCHEM_COMPOUND_CID>
63131429

> <PUBCHEM_COMPOUND_CANONICALIZED>
1

> <PUBCHEM_CACTVS_COMPLEXITY>
345

> <PUBCHEM_CACTVS_HBOND_ACCEPTOR>
3

> <PUBCHEM_CACTVS_HBOND_DONOR>
1

> <PUBCHEM_CACTVS_ROTATABLE_BOND>
5

> <PUBCHEM_CACTVS_SUBSKEYS>
AAADceB7IAAAAAAAAAAAAAAAAAAAAAAAAAAsWAAAAAAAAAABgAAAHgAQAAAADijBmgQ+gJPIEACoAjF3VACCgCAxAiAI2KE4ZJgIIPrA0ZGEIAhglgDIyAcYAQAPAAAAAAAAAAAAAAAAAAAAAAAAAAAAAA==

> <PUBCHEM_IUPAC_OPENEYE_NAME>
3-ethyl-N-isopropyl-N-(3-pyridylmethyl)piperidine-3-carboxamide

> <PUBCHEM_IUPAC_CAS_NAME>
3-ethyl-N-propan-2-yl-N-(3-pyridinylmethyl)-3-piperidinecarboxamide

> <PUBCHEM_IUPAC_NAME>
3-ethyl-N-propan-2-yl-N-(pyridin-3-ylmethyl)piperidine-3-carboxamide

> <PUBCHEM_IUPAC_SYSTEMATIC_NAME>
3-ethyl-N-propan-2-yl-N-(pyridin-3-ylmethyl)piperidine-3-carboxamide

> <PUBCHEM_IUPAC_TRADITIONAL_NAME>
3-ethyl-N-isopropyl-N-(3-pyridylmethyl)nipecotamide

> <PUBCHEM_IUPAC_INCHI>
InChI=1S/C17H27N3O/c1-4-17(8-6-10-19-13-17)16(21)20(14(2)3)12-15-7-5-9-18-11-15/h5,7,9,11,14,19H,4,6,8,10,12-13H2,1-3H3

> <PUBCHEM_IUPAC_INCHIKEY>
UWLSJODYIVBPEB-UHFFFAOYSA-N

> <PUBCHEM_XLOGP3_AA>
1.7

> <PUBCHEM_EXACT_MASS>
289.215412

> <PUBCHEM_MOLECULAR_FORMULA>
C17H27N3O

> <PUBCHEM_MOLECULAR_WEIGHT>
289.41578

> <PUBCHEM_OPENEYE_CAN_SMILES>
CCC1(CCCNC1)C(=O)N(CC2=CN=CC=C2)C(C)C

> <PUBCHEM_OPENEYE_ISO_SMILES>
CCC1(CCCNC1)C(=O)N(CC2=CN=CC=C2)C(C)C

> <PUBCHEM_CACTVS_TPSA>
45.2

> <PUBCHEM_MONOISOTOPIC_WEIGHT>
289.215412

> <PUBCHEM_TOTAL_CHARGE>
0

> <PUBCHEM_HEAVY_ATOM_COUNT>
21

> <PUBCHEM_ATOM_DEF_STEREO_COUNT>
0

> <PUBCHEM_ATOM_UDEF_STEREO_COUNT>
1

> <PUBCHEM_BOND_DEF_STEREO_COUNT>
0

> <PUBCHEM_BOND_UDEF_STEREO_COUNT>
0

> <PUBCHEM_ISOTOPIC_ATOM_COUNT>
0

> <PUBCHEM_COMPONENT_COUNT>
1

> <PUBCHEM_CACTVS_TAUTO_COUNT>
1

> <PUBCHEM_COORDINATE_TYPE>
1

> <PUBCHEM_BONDANNOTATIONS>
17  18  8

$$$$
