32338269
  CDK     0202151413

 24 24  0  0  0  0  0  0  0  0999 V2000
    7.1962   -2.6550    0.0000 Br  0  0  0  0  0  0  0  0  0  0  0  0
    7.1962    1.3450    0.0000 S   0  0  0  0  0  0  0  0  0  0  0  0
    4.5981   -1.1550    0.0000 O   0  0  0  0  0  0  0  0  0  0  0  0
    8.1962    1.3450    0.0000 O   0  0  0  0  0  0  0  0  0  0  0  0
    6.1962    1.3450    0.0000 O   0  0  0  0  0  0  0  0  0  0  0  0
    5.4641   -2.6550    0.0000 O   0  0  0  0  0  0  0  0  0  0  0  0
    7.1962    2.3450    0.0000 N   0  0  0  0  0  0  0  0  0  0  0  0
    2.0000   -0.6550    0.0000 N   0  0  0  0  0  0  0  0  0  0  0  0
    7.1962    0.3450    0.0000 C   0  0  0  0  0  0  0  0  0  0  0  0
    6.3301   -0.1550    0.0000 C   0  0  0  0  0  0  0  0  0  0  0  0
    6.3301   -1.1550    0.0000 C   0  0  0  0  0  0  0  0  0  0  0  0
    8.0622   -0.1550    0.0000 C   0  0  0  0  0  0  0  0  0  0  0  0
    7.1962   -1.6550    0.0000 C   0  0  0  0  0  0  0  0  0  0  0  0
    8.0622   -1.1550    0.0000 C   0  0  0  0  0  0  0  0  0  0  0  0
    5.4641   -1.6550    0.0000 C   0  0  0  0  0  0  0  0  0  0  0  0
    3.7321   -1.6550    0.0000 C   0  0  0  0  0  0  0  0  0  0  0  0
    2.8660   -1.1550    0.0000 C   0  0  0  0  0  0  0  0  0  0  0  0
    5.7932    0.1550    0.0000 H   0  0  0  0  0  0  0  0  0  0  0  0
    8.5991    0.1550    0.0000 H   0  0  0  0  0  0  0  0  0  0  0  0
    8.5991   -1.4650    0.0000 H   0  0  0  0  0  0  0  0  0  0  0  0
    7.7331    2.6550    0.0000 H   0  0  0  0  0  0  0  0  0  0  0  0
    6.6592    2.6550    0.0000 H   0  0  0  0  0  0  0  0  0  0  0  0
    3.3335   -2.1300    0.0000 H   0  0  0  0  0  0  0  0  0  0  0  0
    4.1306   -2.1300    0.0000 H   0  0  0  0  0  0  0  0  0  0  0  0
  1 13  1  0  0  0  0 
  2  4  2  0  0  0  0 
  2  5  2  0  0  0  0 
  2  7  1  0  0  0  0 
  2  9  1  0  0  0  0 
  3 15  1  0  0  0  0 
  3 16  1  0  0  0  0 
  6 15  2  0  0  0  0 
  7 21  1  0  0  0  0 
  7 22  1  0  0  0  0 
  8 17  3  0  0  0  0 
  9 10  2  0  0  0  0 
  9 12  1  0  0  0  0 
 10 11  1  0  0  0  0 
 10 18  1  0  0  0  0 
 11 13  2  0  0  0  0 
 11 15  1  0  0  0  0 
 12 14  2  0  0  0  0 
 12 19  1  0  0  0  0 
 13 14  1  0  0  0  0 
 14 20  1  0  0  0  0 
 16 17  1  0  0  0  0 
 16 23  1  0  0  0  0 
 16 24  1  0  0  0  0 
M  END
> <cdk:Title>
32338269

> <cdk:Remark>
null

> <PUBCHEM_COMPOUND_CID>
32338269

> <PUBCHEM_COMPOUND_CANONICALIZED>
1

> <PUBCHEM_CACTVS_COMPLEXITY>
436

> <PUBCHEM_CACTVS_HBOND_ACCEPTOR>
6

> <PUBCHEM_CACTVS_HBOND_DONOR>
1

> <PUBCHEM_CACTVS_ROTATABLE_BOND>
4

> <PUBCHEM_CACTVS_SUBSKEYS>
AAADcYBzOABAEAAAAAAAAAAAAAAAAAAAAAAwAAAAAAAAAAABAAAAHgRQQAABrACh2AIwCYAABAKYBiDSCHBCABAkAAQIiBkACOgIJjKANRiCMQAkwAEIq5eIyCCOAAEAgAAAgAAAAgEAAAEAAAAAAAAAAA==

> <PUBCHEM_IUPAC_OPENEYE_NAME>
cyanomethyl 2-bromo-5-sulfamoyl-benzoate

> <PUBCHEM_IUPAC_CAS_NAME>
2-bromo-5-sulfamoylbenzoic acid cyanomethyl ester

> <PUBCHEM_IUPAC_NAME>
cyanomethyl 2-bromo-5-sulfamoylbenzoate

> <PUBCHEM_IUPAC_SYSTEMATIC_NAME>
cyanomethyl 2-bromanyl-5-sulfamoyl-benzoate

> <PUBCHEM_IUPAC_TRADITIONAL_NAME>
2-bromo-5-sulfamoyl-benzoic acid cyanomethyl ester

> <PUBCHEM_IUPAC_INCHI>
InChI=1S/C9H7BrN2O4S/c10-8-2-1-6(17(12,14)15)5-7(8)9(13)16-4-3-11/h1-2,5H,4H2,(H2,12,14,15)

> <PUBCHEM_IUPAC_INCHIKEY>
FGRXGOJSJQBQMX-UHFFFAOYSA-N

> <PUBCHEM_XLOGP3_AA>
0.8

> <PUBCHEM_EXACT_MASS>
317.93099

> <PUBCHEM_MOLECULAR_FORMULA>
C9H7BrN2O4S

> <PUBCHEM_MOLECULAR_WEIGHT>
319.13188

> <PUBCHEM_OPENEYE_CAN_SMILES>
C1=CC(=C(C=C1S(=O)(=O)N)C(=O)OCC#N)Br

> <PUBCHEM_OPENEYE_ISO_SMILES>
C1=CC(=C(C=C1S(=O)(=O)N)C(=O)OCC#N)Br

> <PUBCHEM_CACTVS_TPSA>
119

> <PUBCHEM_MONOISOTOPIC_WEIGHT>
317.93099

> <PUBCHEM_TOTAL_CHARGE>
0

> <PUBCHEM_HEAVY_ATOM_COUNT>
17

> <PUBCHEM_ATOM_DEF_STEREO_COUNT>
0

> <PUBCHEM_ATOM_UDEF_STEREO_COUNT>
0

> <PUBCHEM_BOND_DEF_STEREO_COUNT>
0

> <PUBCHEM_BOND_UDEF_STEREO_COUNT>
0

> <PUBCHEM_ISOTOPIC_ATOM_COUNT>
0

> <PUBCHEM_COMPONENT_COUNT>
1

> <PUBCHEM_CACTVS_TAUTO_COUNT>
1

> <PUBCHEM_COORDINATE_TYPE>
1

> <PUBCHEM_BONDANNOTATIONS>
10  11  8

$$$$
