919939
  CDK     1227140956

 45 47  0  0  0  0  0  0  0  0999 V2000
    4.7320   -0.5000    0.0000 O   0  0  0  0  0  0  0  0  0  0  0  0
    2.1340   -2.0000    0.0000 O   0  0  0  0  0  0  0  0  0  0  0  0
    5.5981   -2.0000    0.0000 O   0  0  0  0  0  0  0  0  0  0  0  0
    5.5981    4.0000    0.0000 O   0  0  0  0  0  0  0  0  0  0  0  0
    6.4641    2.5000    0.0000 O   0  0  0  0  0  0  0  0  0  0  0  0
    5.5981    3.0000    0.0000 N   0  0  0  0  0  0  0  0  0  0  0  0
    3.8660   -2.0000    0.0000 C   0  0  0  0  0  0  0  0  0  0  0  0
    3.0000   -0.5000    0.0000 C   0  0  0  0  0  0  0  0  0  0  0  0
    4.7320   -2.5000    0.0000 C   0  0  0  0  0  0  0  0  0  0  0  0
    3.0000   -2.5000    0.0000 C   0  0  0  0  0  0  0  0  0  0  0  0
    3.0000   -1.5000    0.0000 C   0  0  0  0  0  0  0  0  0  0  0  0
    3.8660    0.0000    0.0000 C   0  0  2  0  0  0  0  0  0  0  0  0
    4.7320   -3.5000    0.0000 C   0  0  0  0  0  0  0  0  0  0  0  0
    3.0000   -3.5000    0.0000 C   0  0  0  0  0  0  0  0  0  0  0  0
    3.8660   -4.0000    0.0000 C   0  0  0  0  0  0  0  0  0  0  0  0
    4.7320   -1.5000    0.0000 C   0  0  0  0  0  0  0  0  0  0  0  0
    2.0000   -0.5000    0.0000 C   0  0  0  0  0  0  0  0  0  0  0  0
    2.5000    0.3660    0.0000 C   0  0  0  0  0  0  0  0  0  0  0  0
    3.8660    1.0000    0.0000 C   0  0  0  0  0  0  0  0  0  0  0  0
    4.7320    1.5000    0.0000 C   0  0  0  0  0  0  0  0  0  0  0  0
    3.0000    1.5000    0.0000 C   0  0  0  0  0  0  0  0  0  0  0  0
    4.7320    2.5000    0.0000 C   0  0  0  0  0  0  0  0  0  0  0  0
    3.0000    2.5000    0.0000 C   0  0  0  0  0  0  0  0  0  0  0  0
    3.8660    3.0000    0.0000 C   0  0  0  0  0  0  0  0  0  0  0  0
    5.3426   -2.6077    0.0000 H   0  0  0  0  0  0  0  0  0  0  0  0
    4.9441   -1.9174    0.0000 H   0  0  0  0  0  0  0  0  0  0  0  0
    2.7880   -1.9174    0.0000 H   0  0  0  0  0  0  0  0  0  0  0  0
    2.3894   -2.6077    0.0000 H   0  0  0  0  0  0  0  0  0  0  0  0
    4.4030    0.3100    0.0000 H   0  0  0  0  0  0  0  0  0  0  0  0
    4.9441   -4.0826    0.0000 H   0  0  0  0  0  0  0  0  0  0  0  0
    5.3426   -3.3923    0.0000 H   0  0  0  0  0  0  0  0  0  0  0  0
    2.3894   -3.3923    0.0000 H   0  0  0  0  0  0  0  0  0  0  0  0
    2.7880   -4.0826    0.0000 H   0  0  0  0  0  0  0  0  0  0  0  0
    3.4675   -4.4750    0.0000 H   0  0  0  0  0  0  0  0  0  0  0  0
    4.2646   -4.4750    0.0000 H   0  0  0  0  0  0  0  0  0  0  0  0
    3.0369    0.6760    0.0000 H   0  0  0  0  0  0  0  0  0  0  0  0
    2.1900    0.9030    0.0000 H   0  0  0  0  0  0  0  0  0  0  0  0
    1.9631    0.0560    0.0000 H   0  0  0  0  0  0  0  0  0  0  0  0
    2.0000    0.1200    0.0000 H   0  0  0  0  0  0  0  0  0  0  0  0
    1.3800   -0.5000    0.0000 H   0  0  0  0  0  0  0  0  0  0  0  0
    2.0000   -1.1200    0.0000 H   0  0  0  0  0  0  0  0  0  0  0  0
    5.2690    1.1900    0.0000 H   0  0  0  0  0  0  0  0  0  0  0  0
    2.4631    1.1900    0.0000 H   0  0  0  0  0  0  0  0  0  0  0  0
    2.4631    2.8100    0.0000 H   0  0  0  0  0  0  0  0  0  0  0  0
    3.8660    3.6200    0.0000 H   0  0  0  0  0  0  0  0  0  0  0  0
  1 12  1  0  0  0  0 
  1 16  1  0  0  0  0 
  2 11  2  0  0  0  0 
  3 16  2  0  0  0  0 
  4  6  1  0  0  0  0 
  5  6  2  0  0  0  0 
  6 22  1  0  0  0  0 
  7  9  1  0  0  0  0 
  7 10  1  0  0  0  0 
  7 11  1  0  0  0  0 
  7 16  1  0  0  0  0 
  8 11  1  0  0  0  0 
  8 12  1  0  0  0  0 
  8 17  1  0  0  0  0 
  8 18  1  0  0  0  0 
  9 13  1  0  0  0  0 
  9 25  1  0  0  0  0 
  9 26  1  0  0  0  0 
 10 14  1  0  0  0  0 
 10 27  1  0  0  0  0 
 10 28  1  0  0  0  0 
 12 19  1  6  0  0  0 
 12 29  1  0  0  0  0 
 13 15  1  0  0  0  0 
 13 30  1  0  0  0  0 
 13 31  1  0  0  0  0 
 14 15  1  0  0  0  0 
 14 32  1  0  0  0  0 
 14 33  1  0  0  0  0 
 15 34  1  0  0  0  0 
 15 35  1  0  0  0  0 
 17 39  1  0  0  0  0 
 17 40  1  0  0  0  0 
 17 41  1  0  0  0  0 
 18 36  1  0  0  0  0 
 18 37  1  0  0  0  0 
 18 38  1  0  0  0  0 
 19 20  2  0  0  0  0 
 19 21  1  0  0  0  0 
 20 22  1  0  0  0  0 
 20 42  1  0  0  0  0 
 21 23  2  0  0  0  0 
 21 43  1  0  0  0  0 
 22 24  2  0  0  0  0 
 23 24  1  0  0  0  0 
 23 44  1  0  0  0  0 
 24 45  1  0  0  0  0 
M  CHG  1   4  -1
M  CHG  1   6   1
M  END
> <cdk:Title>
919939

> <cdk:Remark>
null

> <PUBCHEM_COMPOUND_CID>
919939

> <PUBCHEM_COMPOUND_CANONICALIZED>
1

> <PUBCHEM_CACTVS_COMPLEXITY>
544

> <PUBCHEM_CACTVS_HBOND_ACCEPTOR>
5

> <PUBCHEM_CACTVS_HBOND_DONOR>
0

> <PUBCHEM_CACTVS_ROTATABLE_BOND>
1

> <PUBCHEM_CACTVS_SUBSKEYS>
AAADceB6OAAAAAAAAAAAAAAAAAAAAAAAAAA0YIAAAAAAAAABAAAAHgAEAAAADhyhmAIyyIAQRACJAqTSSwCCAAAgAgAoiAEAbIoIJjaIsZmCMABk4AEI6Ae4zODPAAAAQAAAAAAAAACAAAAAAAAAAAAAAA==

> <PUBCHEM_IUPAC_OPENEYE_NAME>
(3S)-4,4-dimethyl-3-(3-nitrophenyl)-2-oxaspiro[5.5]undecane-1,5-dione

> <PUBCHEM_IUPAC_CAS_NAME>
(3S)-4,4-dimethyl-3-(3-nitrophenyl)-2-oxaspiro[5.5]undecane-1,5-dione

> <PUBCHEM_IUPAC_NAME>
(3S)-4,4-dimethyl-3-(3-nitrophenyl)-2-oxaspiro[5.5]undecane-1,5-dione

> <PUBCHEM_IUPAC_SYSTEMATIC_NAME>
(3S)-4,4-dimethyl-3-(3-nitrophenyl)-2-oxaspiro[5.5]undecane-1,5-dione

> <PUBCHEM_IUPAC_TRADITIONAL_NAME>
(3S)-4,4-dimethyl-3-(3-nitrophenyl)-2-oxaspiro[5.5]undecane-1,5-quinone

> <PUBCHEM_IUPAC_INCHI>
InChI=1S/C18H21NO5/c1-17(2)14(12-7-6-8-13(11-12)19(22)23)24-16(21)18(15(17)20)9-4-3-5-10-18/h6-8,11,14H,3-5,9-10H2,1-2H3/t14-/m0/s1

> <PUBCHEM_IUPAC_INCHIKEY>
PMHVYPKNSLANMB-AWEZNQCLSA-N

> <PUBCHEM_XLOGP3_AA>
4

> <PUBCHEM_EXACT_MASS>
331.141973

> <PUBCHEM_MOLECULAR_FORMULA>
C18H21NO5

> <PUBCHEM_MOLECULAR_WEIGHT>
331.36304

> <PUBCHEM_OPENEYE_CAN_SMILES>
CC1(C(OC(=O)C2(C1=O)CCCCC2)C3=CC(=CC=C3)[N+](=O)[O-])C

> <PUBCHEM_OPENEYE_ISO_SMILES>
CC1([C@@H](OC(=O)C2(C1=O)CCCCC2)C3=CC(=CC=C3)[N+](=O)[O-])C

> <PUBCHEM_CACTVS_TPSA>
89.2

> <PUBCHEM_MONOISOTOPIC_WEIGHT>
331.141973

> <PUBCHEM_TOTAL_CHARGE>
0

> <PUBCHEM_HEAVY_ATOM_COUNT>
24

> <PUBCHEM_ATOM_DEF_STEREO_COUNT>
1

> <PUBCHEM_ATOM_UDEF_STEREO_COUNT>
0

> <PUBCHEM_BOND_DEF_STEREO_COUNT>
0

> <PUBCHEM_BOND_UDEF_STEREO_COUNT>
0

> <PUBCHEM_ISOTOPIC_ATOM_COUNT>
0

> <PUBCHEM_COMPONENT_COUNT>
1

> <PUBCHEM_CACTVS_TAUTO_COUNT>
1

> <PUBCHEM_COORDINATE_TYPE>
1

> <PUBCHEM_BONDANNOTATIONS>
12  19  6

$$$$
