70037035
  CDK     1228141037

 31 32  0  0  0  0  0  0  0  0999 V2000
    5.8301    2.0186    0.0000 N   0  0  0  0  0  0  0  0  0  0  0  0
    7.1962   -2.0202    0.0000 N   0  0  0  0  0  0  0  0  0  0  0  0
    4.5981   -0.5202    0.0000 C   0  0  0  0  0  0  0  0  0  0  0  0
    3.7320   -1.0202    0.0000 C   0  0  0  0  0  0  0  0  0  0  0  0
    5.4641   -1.0202    0.0000 C   0  0  0  0  0  0  0  0  0  0  0  0
    2.8660   -0.5202    0.0000 C   0  0  0  0  0  0  0  0  0  0  0  0
    6.3301   -0.5202    0.0000 C   0  0  0  0  0  0  0  0  0  0  0  0
    6.3301    0.4798    0.0000 C   0  0  0  0  0  0  0  0  0  0  0  0
    5.4641   -2.0202    0.0000 C   0  0  0  0  0  0  0  0  0  0  0  0
    2.0000   -1.0202    0.0000 C   0  0  0  0  0  0  0  0  0  0  0  0
    7.1962   -1.0202    0.0000 C   0  0  0  0  0  0  0  0  0  0  0  0
    5.5211    1.0676    0.0000 C   0  0  0  0  0  0  0  0  0  0  0  0
    7.1391    1.0676    0.0000 C   0  0  0  0  0  0  0  0  0  0  0  0
    6.3301   -2.5202    0.0000 C   0  0  0  0  0  0  0  0  0  0  0  0
    6.8301    2.0186    0.0000 C   0  0  0  0  0  0  0  0  0  0  0  0
    4.9966   -0.0453    0.0000 H   0  0  0  0  0  0  0  0  0  0  0  0
    4.1996   -0.0453    0.0000 H   0  0  0  0  0  0  0  0  0  0  0  0
    3.3335   -1.4952    0.0000 H   0  0  0  0  0  0  0  0  0  0  0  0
    4.1306   -1.4952    0.0000 H   0  0  0  0  0  0  0  0  0  0  0  0
    3.2646   -0.0453    0.0000 H   0  0  0  0  0  0  0  0  0  0  0  0
    2.4675   -0.0453    0.0000 H   0  0  0  0  0  0  0  0  0  0  0  0
    4.9272   -2.3302    0.0000 H   0  0  0  0  0  0  0  0  0  0  0  0
    1.6900   -0.4833    0.0000 H   0  0  0  0  0  0  0  0  0  0  0  0
    1.4631   -1.3302    0.0000 H   0  0  0  0  0  0  0  0  0  0  0  0
    2.3100   -1.5572    0.0000 H   0  0  0  0  0  0  0  0  0  0  0  0
    7.7331   -0.7102    0.0000 H   0  0  0  0  0  0  0  0  0  0  0  0
    4.9315    0.8760    0.0000 H   0  0  0  0  0  0  0  0  0  0  0  0
    7.7288    0.8760    0.0000 H   0  0  0  0  0  0  0  0  0  0  0  0
    6.3301   -3.1402    0.0000 H   0  0  0  0  0  0  0  0  0  0  0  0
    5.4657    2.5202    0.0000 H   0  0  0  0  0  0  0  0  0  0  0  0
    7.1946    2.5202    0.0000 H   0  0  0  0  0  0  0  0  0  0  0  0
  1 12  1  0  0  0  0 
  1 15  1  0  0  0  0 
  1 30  1  0  0  0  0 
  2 11  2  0  0  0  0 
  2 14  1  0  0  0  0 
  3  4  1  0  0  0  0 
  3  5  1  0  0  0  0 
  3 16  1  0  0  0  0 
  3 17  1  0  0  0  0 
  4  6  1  0  0  0  0 
  4 18  1  0  0  0  0 
  4 19  1  0  0  0  0 
  5  7  2  0  0  0  0 
  5  9  1  0  0  0  0 
  6 10  1  0  0  0  0 
  6 20  1  0  0  0  0 
  6 21  1  0  0  0  0 
  7  8  1  0  0  0  0 
  7 11  1  0  0  0  0 
  8 12  2  0  0  0  0 
  8 13  1  0  0  0  0 
  9 14  2  0  0  0  0 
  9 22  1  0  0  0  0 
 10 23  1  0  0  0  0 
 10 24  1  0  0  0  0 
 10 25  1  0  0  0  0 
 11 26  1  0  0  0  0 
 12 27  1  0  0  0  0 
 13 15  2  0  0  0  0 
 13 28  1  0  0  0  0 
 14 29  1  0  0  0  0 
 15 31  1  0  0  0  0 
M  END
> <cdk:Title>
70037035

> <cdk:Remark>
null

> <PUBCHEM_COMPOUND_CID>
70037035

> <PUBCHEM_COMPOUND_CANONICALIZED>
1

> <PUBCHEM_CACTVS_COMPLEXITY>
181

> <PUBCHEM_CACTVS_HBOND_ACCEPTOR>
1

> <PUBCHEM_CACTVS_HBOND_DONOR>
1

> <PUBCHEM_CACTVS_ROTATABLE_BOND>
4

> <PUBCHEM_CACTVS_SUBSKEYS>
AAADceBzAAAAAAAAAAAAAAAAAAAAAWAAAAAsAAAAAAAAAAAB4AAAHAAQAAAADADBGgQ+gJLJkACgAjBnRACCgCAxAiAI2aA4ZJgIIOLAkZGEIAhgkADIyAcQgMAOgAAAAAAAAAAAAAAAAAAAAAAAAAAAAA==

> <PUBCHEM_IUPAC_OPENEYE_NAME>
4-butyl-3-(1H-pyrrol-3-yl)pyridine

> <PUBCHEM_IUPAC_CAS_NAME>
4-butyl-3-(1H-pyrrol-3-yl)pyridine

> <PUBCHEM_IUPAC_NAME>
4-butyl-3-(1H-pyrrol-3-yl)pyridine

> <PUBCHEM_IUPAC_SYSTEMATIC_NAME>
4-butyl-3-(1H-pyrrol-3-yl)pyridine

> <PUBCHEM_IUPAC_TRADITIONAL_NAME>
4-butyl-3-(1H-pyrrol-3-yl)pyridine

> <PUBCHEM_IUPAC_INCHI>
InChI=1S/C13H16N2/c1-2-3-4-11-5-7-15-10-13(11)12-6-8-14-9-12/h5-10,14H,2-4H2,1H3

> <PUBCHEM_IUPAC_INCHIKEY>
RMBSWJUVYLGMPA-UHFFFAOYSA-N

> <PUBCHEM_XLOGP3_AA>
3.1

> <PUBCHEM_EXACT_MASS>
200.131349

> <PUBCHEM_MOLECULAR_FORMULA>
C13H16N2

> <PUBCHEM_MOLECULAR_WEIGHT>
200.27954

> <PUBCHEM_OPENEYE_CAN_SMILES>
CCCCC1=C(C=NC=C1)C2=CNC=C2

> <PUBCHEM_OPENEYE_ISO_SMILES>
CCCCC1=C(C=NC=C1)C2=CNC=C2

> <PUBCHEM_CACTVS_TPSA>
28.7

> <PUBCHEM_MONOISOTOPIC_WEIGHT>
200.131349

> <PUBCHEM_TOTAL_CHARGE>
0

> <PUBCHEM_HEAVY_ATOM_COUNT>
15

> <PUBCHEM_ATOM_DEF_STEREO_COUNT>
0

> <PUBCHEM_ATOM_UDEF_STEREO_COUNT>
0

> <PUBCHEM_BOND_DEF_STEREO_COUNT>
0

> <PUBCHEM_BOND_UDEF_STEREO_COUNT>
0

> <PUBCHEM_ISOTOPIC_ATOM_COUNT>
0

> <PUBCHEM_COMPONENT_COUNT>
1

> <PUBCHEM_CACTVS_TAUTO_COUNT>
1

> <PUBCHEM_COORDINATE_TYPE>
1

> <PUBCHEM_BONDANNOTATIONS>
1  12  8

$$$$
