11217487
  CDK     0104151054

 26 26  0  0  0  0  0  0  0  0999 V2000
    2.0000   -1.3660    0.0000 O   0  0  0  0  0  0  0  0  0  0  0  0
    4.5000    0.5000    0.0000 O   0  0  0  0  0  0  0  0  0  0  0  0
    6.0000   -0.3660    0.0000 O   0  0  0  0  0  0  0  0  0  0  0  0
    3.0000   -0.3660    0.0000 C   0  0  0  0  0  0  0  0  0  0  0  0
    2.0000   -0.3660    0.0000 C   0  0  0  0  0  0  0  0  0  0  0  0
    3.0000   -1.3660    0.0000 C   0  0  0  0  0  0  0  0  0  0  0  0
    3.0000    0.6340    0.0000 C   0  0  0  0  0  0  0  0  0  0  0  0
    4.0000   -0.3660    0.0000 C   0  0  0  0  0  0  0  0  0  0  0  0
    2.1340    1.1340    0.0000 C   0  0  0  0  0  0  0  0  0  0  0  0
    5.5000    0.5000    0.0000 C   0  0  0  0  0  0  0  0  0  0  0  0
    6.0000    1.3660    0.0000 C   0  0  0  0  0  0  0  0  0  0  0  0
    7.0000    1.3660    0.0000 C   0  0  0  0  0  0  0  0  0  0  0  0
    2.0000    0.2540    0.0000 H   0  0  0  0  0  0  0  0  0  0  0  0
    1.3800   -0.3660    0.0000 H   0  0  0  0  0  0  0  0  0  0  0  0
    3.0000   -1.9860    0.0000 H   0  0  0  0  0  0  0  0  0  0  0  0
    3.6200   -1.3660    0.0000 H   0  0  0  0  0  0  0  0  0  0  0  0
    3.6106    0.5263    0.0000 H   0  0  0  0  0  0  0  0  0  0  0  0
    3.2120    1.2166    0.0000 H   0  0  0  0  0  0  0  0  0  0  0  0
    3.8923   -0.9766    0.0000 H   0  0  0  0  0  0  0  0  0  0  0  0
    4.5826   -0.5781    0.0000 H   0  0  0  0  0  0  0  0  0  0  0  0
    2.4440    1.6709    0.0000 H   0  0  0  0  0  0  0  0  0  0  0  0
    1.5970    1.4440    0.0000 H   0  0  0  0  0  0  0  0  0  0  0  0
    1.8240    0.5970    0.0000 H   0  0  0  0  0  0  0  0  0  0  0  0
    5.6900    1.9030    0.0000 H   0  0  0  0  0  0  0  0  0  0  0  0
    7.3100    0.8291    0.0000 H   0  0  0  0  0  0  0  0  0  0  0  0
    7.3100    1.9030    0.0000 H   0  0  0  0  0  0  0  0  0  0  0  0
  1  5  1  0  0  0  0 
  1  6  1  0  0  0  0 
  2  8  1  0  0  0  0 
  2 10  1  0  0  0  0 
  3 10  2  0  0  0  0 
  4  5  1  0  0  0  0 
  4  6  1  0  0  0  0 
  4  7  1  0  0  0  0 
  4  8  1  0  0  0  0 
  5 13  1  0  0  0  0 
  5 14  1  0  0  0  0 
  6 15  1  0  0  0  0 
  6 16  1  0  0  0  0 
  7  9  1  0  0  0  0 
  7 17  1  0  0  0  0 
  7 18  1  0  0  0  0 
  8 19  1  0  0  0  0 
  8 20  1  0  0  0  0 
  9 21  1  0  0  0  0 
  9 22  1  0  0  0  0 
  9 23  1  0  0  0  0 
 10 11  1  0  0  0  0 
 11 12  2  0  0  0  0 
 11 24  1  0  0  0  0 
 12 25  1  0  0  0  0 
 12 26  1  0  0  0  0 
M  END
> <cdk:Title>
11217487

> <cdk:Remark>
null

> <PUBCHEM_COMPOUND_CID>
11217487

> <PUBCHEM_COMPOUND_CANONICALIZED>
1

> <PUBCHEM_CACTVS_COMPLEXITY>
182

> <PUBCHEM_CACTVS_HBOND_ACCEPTOR>
3

> <PUBCHEM_CACTVS_HBOND_DONOR>
0

> <PUBCHEM_CACTVS_ROTATABLE_BOND>
5

> <PUBCHEM_CACTVS_SUBSKEYS>
AAADccBwMAAAAAAAAAAAAAAAAABIAAAAAAAAAAAAAAAAAAAAAAAAGgAAAAAADgCggAICCAAABACIACDSCAAAAAAAAAAIAAAAAEAABAAAIAACAAAFAAAAIIAAAAAJAAAAAAAAAAAAAAAAAAAAAAAAAAAAAA==

> <PUBCHEM_IUPAC_OPENEYE_NAME>
(3-ethyloxetan-3-yl)methyl prop-2-enoate

> <PUBCHEM_IUPAC_CAS_NAME>
2-propenoic acid (3-ethyl-3-oxetanyl)methyl ester

> <PUBCHEM_IUPAC_NAME>
(3-ethyloxetan-3-yl)methyl prop-2-enoate

> <PUBCHEM_IUPAC_SYSTEMATIC_NAME>
(3-ethyloxetan-3-yl)methyl prop-2-enoate

> <PUBCHEM_IUPAC_TRADITIONAL_NAME>
acrylic acid (3-ethyloxetan-3-yl)methyl ester

> <PUBCHEM_IUPAC_INCHI>
InChI=1S/C9H14O3/c1-3-8(10)12-7-9(4-2)5-11-6-9/h3H,1,4-7H2,2H3

> <PUBCHEM_IUPAC_INCHIKEY>
PYEYLPDXIYOCJK-UHFFFAOYSA-N

> <PUBCHEM_XLOGP3_AA>
1.3

> <PUBCHEM_EXACT_MASS>
170.094294

> <PUBCHEM_MOLECULAR_FORMULA>
C9H14O3

> <PUBCHEM_MOLECULAR_WEIGHT>
170.20566

> <PUBCHEM_OPENEYE_CAN_SMILES>
CCC1(COC1)COC(=O)C=C

> <PUBCHEM_OPENEYE_ISO_SMILES>
CCC1(COC1)COC(=O)C=C

> <PUBCHEM_CACTVS_TPSA>
35.5

> <PUBCHEM_MONOISOTOPIC_WEIGHT>
170.094294

> <PUBCHEM_TOTAL_CHARGE>
0

> <PUBCHEM_HEAVY_ATOM_COUNT>
12

> <PUBCHEM_ATOM_DEF_STEREO_COUNT>
0

> <PUBCHEM_ATOM_UDEF_STEREO_COUNT>
0

> <PUBCHEM_BOND_DEF_STEREO_COUNT>
0

> <PUBCHEM_BOND_UDEF_STEREO_COUNT>
0

> <PUBCHEM_ISOTOPIC_ATOM_COUNT>
0

> <PUBCHEM_COMPONENT_COUNT>
1

> <PUBCHEM_CACTVS_TAUTO_COUNT>
1

> <PUBCHEM_COORDINATE_TYPE>
1

$$$$
11217487
  CDK     0104151054

 26 26  0  0  0  0  0  0  0  0999 V2000
    2.0000   -1.3660    0.0000 O   0  0  0  0  0  0  0  0  0  0  0  0
    4.5000    0.5000    0.0000 O   0  0  0  0  0  0  0  0  0  0  0  0
    6.0000   -0.3660    0.0000 O   0  0  0  0  0  0  0  0  0  0  0  0
    3.0000   -0.3660    0.0000 C   0  0  0  0  0  0  0  0  0  0  0  0
    2.0000   -0.3660    0.0000 C   0  0  0  0  0  0  0  0  0  0  0  0
    3.0000   -1.3660    0.0000 C   0  0  0  0  0  0  0  0  0  0  0  0
    3.0000    0.6340    0.0000 C   0  0  0  0  0  0  0  0  0  0  0  0
    4.0000   -0.3660    0.0000 C   0  0  0  0  0  0  0  0  0  0  0  0
    2.1340    1.1340    0.0000 C   0  0  0  0  0  0  0  0  0  0  0  0
    5.5000    0.5000    0.0000 C   0  0  0  0  0  0  0  0  0  0  0  0
    6.0000    1.3660    0.0000 C   0  0  0  0  0  0  0  0  0  0  0  0
    7.0000    1.3660    0.0000 C   0  0  0  0  0  0  0  0  0  0  0  0
    2.0000    0.2540    0.0000 H   0  0  0  0  0  0  0  0  0  0  0  0
    1.3800   -0.3660    0.0000 H   0  0  0  0  0  0  0  0  0  0  0  0
    3.0000   -1.9860    0.0000 H   0  0  0  0  0  0  0  0  0  0  0  0
    3.6200   -1.3660    0.0000 H   0  0  0  0  0  0  0  0  0  0  0  0
    3.6106    0.5263    0.0000 H   0  0  0  0  0  0  0  0  0  0  0  0
    3.2120    1.2166    0.0000 H   0  0  0  0  0  0  0  0  0  0  0  0
    3.8923   -0.9766    0.0000 H   0  0  0  0  0  0  0  0  0  0  0  0
    4.5826   -0.5781    0.0000 H   0  0  0  0  0  0  0  0  0  0  0  0
    2.4440    1.6709    0.0000 H   0  0  0  0  0  0  0  0  0  0  0  0
    1.5970    1.4440    0.0000 H   0  0  0  0  0  0  0  0  0  0  0  0
    1.8240    0.5970    0.0000 H   0  0  0  0  0  0  0  0  0  0  0  0
    5.6900    1.9030    0.0000 H   0  0  0  0  0  0  0  0  0  0  0  0
    7.3100    0.8291    0.0000 H   0  0  0  0  0  0  0  0  0  0  0  0
    7.3100    1.9030    0.0000 H   0  0  0  0  0  0  0  0  0  0  0  0
  1  5  1  0  0  0  0 
  1  6  1  0  0  0  0 
  2  8  1  0  0  0  0 
  2 10  1  0  0  0  0 
  3 10  2  0  0  0  0 
  4  5  1  0  0  0  0 
  4  6  1  0  0  0  0 
  4  7  1  0  0  0  0 
  4  8  1  0  0  0  0 
  5 13  1  0  0  0  0 
  5 14  1  0  0  0  0 
  6 15  1  0  0  0  0 
  6 16  1  0  0  0  0 
  7  9  1  0  0  0  0 
  7 17  1  0  0  0  0 
  7 18  1  0  0  0  0 
  8 19  1  0  0  0  0 
  8 20  1  0  0  0  0 
  9 21  1  0  0  0  0 
  9 22  1  0  0  0  0 
  9 23  1  0  0  0  0 
 10 11  1  0  0  0  0 
 11 12  2  0  0  0  0 
 11 24  1  0  0  0  0 
 12 25  1  0  0  0  0 
 12 26  1  0  0  0  0 
M  END
> <cdk:Title>
11217487

> <cdk:Remark>
null

> <PUBCHEM_COMPOUND_CID>
11217487

> <PUBCHEM_COMPOUND_CANONICALIZED>
1

> <PUBCHEM_CACTVS_COMPLEXITY>
182

> <PUBCHEM_CACTVS_HBOND_ACCEPTOR>
3

> <PUBCHEM_CACTVS_HBOND_DONOR>
0

> <PUBCHEM_CACTVS_ROTATABLE_BOND>
5

> <PUBCHEM_CACTVS_SUBSKEYS>
AAADccBwMAAAAAAAAAAAAAAAAABIAAAAAAAAAAAAAAAAAAAAAAAAGgAAAAAADgCggAICCAAABACIACDSCAAAAAAAAAAIAAAAAEAABAAAIAACAAAFAAAAIIAAAAAJAAAAAAAAAAAAAAAAAAAAAAAAAAAAAA==

> <PUBCHEM_IUPAC_OPENEYE_NAME>
(3-ethyloxetan-3-yl)methyl prop-2-enoate

> <PUBCHEM_IUPAC_CAS_NAME>
2-propenoic acid (3-ethyl-3-oxetanyl)methyl ester

> <PUBCHEM_IUPAC_NAME>
(3-ethyloxetan-3-yl)methyl prop-2-enoate

> <PUBCHEM_IUPAC_SYSTEMATIC_NAME>
(3-ethyloxetan-3-yl)methyl prop-2-enoate

> <PUBCHEM_IUPAC_TRADITIONAL_NAME>
acrylic acid (3-ethyloxetan-3-yl)methyl ester

> <PUBCHEM_IUPAC_INCHI>
InChI=1S/C9H14O3/c1-3-8(10)12-7-9(4-2)5-11-6-9/h3H,1,4-7H2,2H3

> <PUBCHEM_IUPAC_INCHIKEY>
PYEYLPDXIYOCJK-UHFFFAOYSA-N

> <PUBCHEM_XLOGP3_AA>
1.3

> <PUBCHEM_EXACT_MASS>
170.094294

> <PUBCHEM_MOLECULAR_FORMULA>
C9H14O3

> <PUBCHEM_MOLECULAR_WEIGHT>
170.20566

> <PUBCHEM_OPENEYE_CAN_SMILES>
CCC1(COC1)COC(=O)C=C

> <PUBCHEM_OPENEYE_ISO_SMILES>
CCC1(COC1)COC(=O)C=C

> <PUBCHEM_CACTVS_TPSA>
35.5

> <PUBCHEM_MONOISOTOPIC_WEIGHT>
170.094294

> <PUBCHEM_TOTAL_CHARGE>
0

> <PUBCHEM_HEAVY_ATOM_COUNT>
12

> <PUBCHEM_ATOM_DEF_STEREO_COUNT>
0

> <PUBCHEM_ATOM_UDEF_STEREO_COUNT>
0

> <PUBCHEM_BOND_DEF_STEREO_COUNT>
0

> <PUBCHEM_BOND_UDEF_STEREO_COUNT>
0

> <PUBCHEM_ISOTOPIC_ATOM_COUNT>
0

> <PUBCHEM_COMPONENT_COUNT>
1

> <PUBCHEM_CACTVS_TAUTO_COUNT>
1

> <PUBCHEM_COORDINATE_TYPE>
1

$$$$
