16548540
  CDK     0104150955

 48 50  0  0  0  0  0  0  0  0999 V2000
    4.2788    1.8130    0.0000 O   0  0  0  0  0  0  0  0  0  0  0  0
    6.3479   -1.0348    0.0000 O   0  0  0  0  0  0  0  0  0  0  0  0
    8.0704    1.3218    0.0000 O   0  0  0  0  0  0  0  0  0  0  0  0
    7.3659   -0.2605    0.0000 O   0  0  0  0  0  0  0  0  0  0  0  0
   11.8291   -1.2997    0.0000 O   0  0  0  0  0  0  0  0  0  0  0  0
    4.5878   -0.7560    0.0000 N   0  0  0  0  0  0  0  0  0  0  0  0
    5.5388    0.5530    0.0000 N   0  0  0  0  0  0  0  0  0  0  0  0
    4.0000    0.0530    0.0000 C   0  0  3  0  0  0  0  0  0  0  0  0
    3.5000   -0.8130    0.0000 C   0  0  3  0  0  0  0  0  0  0  0  0
    3.5000    0.9190    0.0000 C   0  0  0  0  0  0  0  0  0  0  0  0
    2.5000   -0.8130    0.0000 C   0  0  0  0  0  0  0  0  0  0  0  0
    2.5000    0.9190    0.0000 C   0  0  0  0  0  0  0  0  0  0  0  0
    2.0000    0.0530    0.0000 C   0  0  0  0  0  0  0  0  0  0  0  0
    4.5878    0.8620    0.0000 C   0  0  0  0  0  0  0  0  0  0  0  0
    3.5000   -1.8130    0.0000 C   0  0  0  0  0  0  0  0  0  0  0  0
    5.5388   -0.4470    0.0000 C   0  0  0  0  0  0  0  0  0  0  0  0
    6.3479    1.1408    0.0000 C   0  0  0  0  0  0  0  0  0  0  0  0
    7.2614    0.7340    0.0000 C   0  0  0  0  0  0  0  0  0  0  0  0
    8.9840    0.9151    0.0000 C   0  0  0  0  0  0  0  0  0  0  0  0
    9.0885   -0.0794    0.0000 C   0  0  0  0  0  0  0  0  0  0  0  0
    9.7930    1.5029    0.0000 C   0  0  0  0  0  0  0  0  0  0  0  0
   10.0020   -0.4862    0.0000 C   0  0  0  0  0  0  0  0  0  0  0  0
   10.7065    1.0961    0.0000 C   0  0  0  0  0  0  0  0  0  0  0  0
   10.8111    0.1016    0.0000 C   0  0  0  0  0  0  0  0  0  0  0  0
   11.7246   -0.3051    0.0000 C   0  0  0  0  0  0  0  0  0  0  0  0
   12.5336    0.2826    0.0000 C   0  0  0  0  0  0  0  0  0  0  0  0
    4.0989   -0.9735    0.0000 H   0  0  0  0  0  0  0  0  0  0  0  0
    4.0826    1.1311    0.0000 H   0  0  0  0  0  0  0  0  0  0  0  0
    3.3923    1.5296    0.0000 H   0  0  0  0  0  0  0  0  0  0  0  0
    1.9174   -1.0251    0.0000 H   0  0  0  0  0  0  0  0  0  0  0  0
    2.6077   -1.4236    0.0000 H   0  0  0  0  0  0  0  0  0  0  0  0
    2.6077    1.5296    0.0000 H   0  0  0  0  0  0  0  0  0  0  0  0
    1.9174    1.1311    0.0000 H   0  0  0  0  0  0  0  0  0  0  0  0
    1.5250    0.4515    0.0000 H   0  0  0  0  0  0  0  0  0  0  0  0
    1.5250   -0.3456    0.0000 H   0  0  0  0  0  0  0  0  0  0  0  0
    4.7168   -1.3625    0.0000 H   0  0  0  0  0  0  0  0  0  0  0  0
    2.8800   -1.8130    0.0000 H   0  0  0  0  0  0  0  0  0  0  0  0
    3.5000   -2.4330    0.0000 H   0  0  0  0  0  0  0  0  0  0  0  0
    4.1200   -1.8130    0.0000 H   0  0  0  0  0  0  0  0  0  0  0  0
    6.6946    1.6548    0.0000 H   0  0  0  0  0  0  0  0  0  0  0  0
    5.9019    1.5714    0.0000 H   0  0  0  0  0  0  0  0  0  0  0  0
    8.5869   -0.4439    0.0000 H   0  0  0  0  0  0  0  0  0  0  0  0
    9.7282    2.1195    0.0000 H   0  0  0  0  0  0  0  0  0  0  0  0
   10.0668   -1.1028    0.0000 H   0  0  0  0  0  0  0  0  0  0  0  0
   11.2081    1.4606    0.0000 H   0  0  0  0  0  0  0  0  0  0  0  0
   12.8980   -0.2189    0.0000 H   0  0  0  0  0  0  0  0  0  0  0  0
   13.0352    0.6471    0.0000 H   0  0  0  0  0  0  0  0  0  0  0  0
   12.1692    0.7842    0.0000 H   0  0  0  0  0  0  0  0  0  0  0  0
  1 14  2  0  0  0  0 
  2 16  2  0  0  0  0 
  3 18  1  0  0  0  0 
  3 19  1  0  0  0  0 
  4 18  2  0  0  0  0 
  5 25  2  0  0  0  0 
  6  8  1  0  0  0  0 
  6 16  1  0  0  0  0 
  6 36  1  0  0  0  0 
  7 14  1  0  0  0  0 
  7 16  1  0  0  0  0 
  7 17  1  0  0  0  0 
  8  9  1  0  0  0  0 
  8 10  1  0  0  0  0 
  8 14  1  0  0  0  0 
  9 11  1  0  0  0  0 
  9 15  1  0  0  0  0 
  9 27  1  0  0  0  0 
 10 12  1  0  0  0  0 
 10 28  1  0  0  0  0 
 10 29  1  0  0  0  0 
 11 13  1  0  0  0  0 
 11 30  1  0  0  0  0 
 11 31  1  0  0  0  0 
 12 13  1  0  0  0  0 
 12 32  1  0  0  0  0 
 12 33  1  0  0  0  0 
 13 34  1  0  0  0  0 
 13 35  1  0  0  0  0 
 15 37  1  0  0  0  0 
 15 38  1  0  0  0  0 
 15 39  1  0  0  0  0 
 17 18  1  0  0  0  0 
 17 40  1  0  0  0  0 
 17 41  1  0  0  0  0 
 19 20  2  0  0  0  0 
 19 21  1  0  0  0  0 
 20 22  1  0  0  0  0 
 20 42  1  0  0  0  0 
 21 23  2  0  0  0  0 
 21 43  1  0  0  0  0 
 22 24  2  0  0  0  0 
 22 44  1  0  0  0  0 
 23 24  1  0  0  0  0 
 23 45  1  0  0  0  0 
 24 25  1  0  0  0  0 
 25 26  1  0  0  0  0 
 26 46  1  0  0  0  0 
 26 47  1  0  0  0  0 
 26 48  1  0  0  0  0 
M  END
> <cdk:Title>
16548540

> <cdk:Remark>
null

> <PUBCHEM_COMPOUND_CID>
16548540

> <PUBCHEM_COMPOUND_CANONICALIZED>
1

> <PUBCHEM_CACTVS_COMPLEXITY>
611

> <PUBCHEM_CACTVS_HBOND_ACCEPTOR>
5

> <PUBCHEM_CACTVS_HBOND_DONOR>
1

> <PUBCHEM_CACTVS_ROTATABLE_BOND>
5

> <PUBCHEM_CACTVS_SUBSKEYS>
AAADceB7OAAAAAAAAAAAAAAAAAAAAWAAAAAwYAAAAAAAAAABAAAAHgAQAAAADYzBmAQzDoPABACIAqHSGAACCAAkIAAIiAGOCMiOZjKEtTqXOyCs1zOYqYeYzIDOoAAAAAAAAABAAAAAACQAAAAAAAAAAA==

> <PUBCHEM_IUPAC_OPENEYE_NAME>
(4-acetylphenyl) 2-(6-methyl-2,4-dioxo-1,3-diazaspiro[4.5]decan-3-yl)acetate

> <PUBCHEM_IUPAC_CAS_NAME>
2-(6-methyl-2,4-dioxo-1,3-diazaspiro[4.5]decan-3-yl)acetic acid (4-acetylphenyl) ester

> <PUBCHEM_IUPAC_NAME>
(4-acetylphenyl) 2-(6-methyl-2,4-dioxo-1,3-diazaspiro[4.5]decan-3-yl)acetate

> <PUBCHEM_IUPAC_SYSTEMATIC_NAME>
(4-ethanoylphenyl) 2-[6-methyl-2,4-bis(oxidanylidene)-1,3-diazaspiro[4.5]decan-3-yl]ethanoate

> <PUBCHEM_IUPAC_TRADITIONAL_NAME>
2-(2,4-diketo-6-methyl-1,3-diazaspiro[4.5]decan-3-yl)acetic acid (4-acetylphenyl) ester

> <PUBCHEM_IUPAC_INCHI>
InChI=1S/C19H22N2O5/c1-12-5-3-4-10-19(12)17(24)21(18(25)20-19)11-16(23)26-15-8-6-14(7-9-15)13(2)22/h6-9,12H,3-5,10-11H2,1-2H3,(H,20,25)

> <PUBCHEM_IUPAC_INCHIKEY>
ODDBBLMFPKBPSK-UHFFFAOYSA-N

> <PUBCHEM_XLOGP3_AA>
2.3

> <PUBCHEM_EXACT_MASS>
358.152872

> <PUBCHEM_MOLECULAR_FORMULA>
C19H22N2O5

> <PUBCHEM_MOLECULAR_WEIGHT>
358.38838

> <PUBCHEM_OPENEYE_CAN_SMILES>
CC1CCCCC12C(=O)N(C(=O)N2)CC(=O)OC3=CC=C(C=C3)C(=O)C

> <PUBCHEM_OPENEYE_ISO_SMILES>
CC1CCCCC12C(=O)N(C(=O)N2)CC(=O)OC3=CC=C(C=C3)C(=O)C

> <PUBCHEM_CACTVS_TPSA>
92.8

> <PUBCHEM_MONOISOTOPIC_WEIGHT>
358.152872

> <PUBCHEM_TOTAL_CHARGE>
0

> <PUBCHEM_HEAVY_ATOM_COUNT>
26

> <PUBCHEM_ATOM_DEF_STEREO_COUNT>
0

> <PUBCHEM_ATOM_UDEF_STEREO_COUNT>
2

> <PUBCHEM_BOND_DEF_STEREO_COUNT>
0

> <PUBCHEM_BOND_UDEF_STEREO_COUNT>
0

> <PUBCHEM_ISOTOPIC_ATOM_COUNT>
0

> <PUBCHEM_COMPONENT_COUNT>
1

> <PUBCHEM_CACTVS_TAUTO_COUNT>
4

> <PUBCHEM_COORDINATE_TYPE>
1

> <PUBCHEM_BONDANNOTATIONS>
19  20  8

$$$$
34408212
  CDK     0104150955

 43 45  0  0  0  0  0  0  0  0999 V2000
    3.7320    2.4268    0.0000 S   0  0  0  0  0  0  0  0  0  0  0  0
    7.4128   -3.2756    0.0000 O   0  0  0  0  0  0  0  0  0  0  0  0
    4.7320    2.4268    0.0000 O   0  0  0  0  0  0  0  0  0  0  0  0
    2.7320    2.4268    0.0000 O   0  0  0  0  0  0  0  0  0  0  0  0
    4.5981   -2.0732    0.0000 O   0  0  0  0  0  0  0  0  0  0  0  0
    5.4641   -0.5732    0.0000 N   0  0  0  0  0  0  0  0  0  0  0  0
    7.2437   -1.6664    0.0000 N   0  0  0  0  0  0  0  0  0  0  0  0
    3.7320    3.4268    0.0000 N   0  0  0  0  0  0  0  0  0  0  0  0
    3.7320    1.4268    0.0000 C   0  0  0  0  0  0  0  0  0  0  0  0
    2.8660    0.9268    0.0000 C   0  0  0  0  0  0  0  0  0  0  0  0
    4.5981   -0.0732    0.0000 C   0  0  0  0  0  0  0  0  0  0  0  0
    4.5981    0.9268    0.0000 C   0  0  0  0  0  0  0  0  0  0  0  0
    2.8660   -0.0732    0.0000 C   0  0  0  0  0  0  0  0  0  0  0  0
    3.7320   -0.5732    0.0000 C   0  0  0  0  0  0  0  0  0  0  0  0
    6.3301   -2.0732    0.0000 C   0  0  0  0  0  0  0  0  0  0  0  0
    2.0000    1.4268    0.0000 C   0  0  0  0  0  0  0  0  0  0  0  0
    5.4641   -1.5732    0.0000 C   0  0  0  0  0  0  0  0  0  0  0  0
    6.4347   -3.0677    0.0000 C   0  0  0  0  0  0  0  0  0  0  0  0
    7.9128   -2.4096    0.0000 C   0  0  0  0  0  0  0  0  0  0  0  0
    8.9073   -2.3050    0.0000 C   0  0  0  0  0  0  0  0  0  0  0  0
    5.6915   -3.7368    0.0000 C   0  0  0  0  0  0  0  0  0  0  0  0
    9.4951   -3.1141    0.0000 C   0  0  0  0  0  0  0  0  0  0  0  0
    9.3141   -1.3915    0.0000 C   0  0  0  0  0  0  0  0  0  0  0  0
   10.4896   -3.0095    0.0000 C   0  0  0  0  0  0  0  0  0  0  0  0
   10.3086   -1.2870    0.0000 C   0  0  0  0  0  0  0  0  0  0  0  0
   10.8964   -2.0960    0.0000 C   0  0  0  0  0  0  0  0  0  0  0  0
    5.1350    1.2368    0.0000 H   0  0  0  0  0  0  0  0  0  0  0  0
    2.3291   -0.3832    0.0000 H   0  0  0  0  0  0  0  0  0  0  0  0
    3.7320   -1.1932    0.0000 H   0  0  0  0  0  0  0  0  0  0  0  0
    6.0010   -0.2632    0.0000 H   0  0  0  0  0  0  0  0  0  0  0  0
    2.3100    1.9638    0.0000 H   0  0  0  0  0  0  0  0  0  0  0  0
    1.4631    1.7368    0.0000 H   0  0  0  0  0  0  0  0  0  0  0  0
    1.6900    0.8899    0.0000 H   0  0  0  0  0  0  0  0  0  0  0  0
    5.2766   -3.2761    0.0000 H   0  0  0  0  0  0  0  0  0  0  0  0
    5.2308   -4.1517    0.0000 H   0  0  0  0  0  0  0  0  0  0  0  0
    6.1064   -4.1976    0.0000 H   0  0  0  0  0  0  0  0  0  0  0  0
    4.2690    3.7368    0.0000 H   0  0  0  0  0  0  0  0  0  0  0  0
    3.1951    3.7368    0.0000 H   0  0  0  0  0  0  0  0  0  0  0  0
    9.2429   -3.6805    0.0000 H   0  0  0  0  0  0  0  0  0  0  0  0
    8.9496   -0.8899    0.0000 H   0  0  0  0  0  0  0  0  0  0  0  0
   10.8541   -3.5111    0.0000 H   0  0  0  0  0  0  0  0  0  0  0  0
   10.5608   -0.7206    0.0000 H   0  0  0  0  0  0  0  0  0  0  0  0
   11.5130   -2.0312    0.0000 H   0  0  0  0  0  0  0  0  0  0  0  0
  1  3  2  0  0  0  0 
  1  4  2  0  0  0  0 
  1  8  1  0  0  0  0 
  1  9  1  0  0  0  0 
  2 18  1  0  0  0  0 
  2 19  1  0  0  0  0 
  5 17  2  0  0  0  0 
  6 11  1  0  0  0  0 
  6 17  1  0  0  0  0 
  6 30  1  0  0  0  0 
  7 15  1  0  0  0  0 
  7 19  2  0  0  0  0 
  8 37  1  0  0  0  0 
  8 38  1  0  0  0  0 
  9 10  2  0  0  0  0 
  9 12  1  0  0  0  0 
 10 13  1  0  0  0  0 
 10 16  1  0  0  0  0 
 11 12  2  0  0  0  0 
 11 14  1  0  0  0  0 
 12 27  1  0  0  0  0 
 13 14  2  0  0  0  0 
 13 28  1  0  0  0  0 
 14 29  1  0  0  0  0 
 15 17  1  0  0  0  0 
 15 18  2  0  0  0  0 
 16 31  1  0  0  0  0 
 16 32  1  0  0  0  0 
 16 33  1  0  0  0  0 
 18 21  1  0  0  0  0 
 19 20  1  0  0  0  0 
 20 22  2  0  0  0  0 
 20 23  1  0  0  0  0 
 21 34  1  0  0  0  0 
 21 35  1  0  0  0  0 
 21 36  1  0  0  0  0 
 22 24  1  0  0  0  0 
 22 39  1  0  0  0  0 
 23 25  2  0  0  0  0 
 23 40  1  0  0  0  0 
 24 26  2  0  0  0  0 
 24 41  1  0  0  0  0 
 25 26  1  0  0  0  0 
 25 42  1  0  0  0  0 
 26 43  1  0  0  0  0 
M  END
> <cdk:Title>
34408212

> <cdk:Remark>
null

> <PUBCHEM_COMPOUND_CID>
34408212

> <PUBCHEM_COMPOUND_CANONICALIZED>
1

> <PUBCHEM_CACTVS_COMPLEXITY>
600

> <PUBCHEM_CACTVS_HBOND_ACCEPTOR>
6

> <PUBCHEM_CACTVS_HBOND_DONOR>
2

> <PUBCHEM_CACTVS_ROTATABLE_BOND>
4

> <PUBCHEM_CACTVS_SUBSKEYS>
AAADceB7OABAAAAAAAAAAAAAAAAAAWAAAAAwYAAAAAAAAAAB0AAAHgQQQAAADAyB3gAyxZLIFEKoA6VyVHTCiDAvYiAImDmlbNgOZr7MtbmfOWzm9AHY6YeYyCCOCAAAACAEAAAQAAAAQAgAAAAAAAAAAA==

> <PUBCHEM_IUPAC_OPENEYE_NAME>
5-methyl-N-(4-methyl-3-sulfamoyl-phenyl)-2-phenyl-oxazole-4-carboxamide

> <PUBCHEM_IUPAC_CAS_NAME>
5-methyl-N-(4-methyl-3-sulfamoylphenyl)-2-phenyl-4-oxazolecarboxamide

> <PUBCHEM_IUPAC_NAME>
5-methyl-N-(4-methyl-3-sulfamoylphenyl)-2-phenyl-1,3-oxazole-4-carboxamide

> <PUBCHEM_IUPAC_SYSTEMATIC_NAME>
5-methyl-N-(4-methyl-3-sulfamoyl-phenyl)-2-phenyl-1,3-oxazole-4-carboxamide

> <PUBCHEM_IUPAC_TRADITIONAL_NAME>
5-methyl-N-(4-methyl-3-sulfamoyl-phenyl)-2-phenyl-oxazole-4-carboxamide

> <PUBCHEM_IUPAC_INCHI>
InChI=1S/C18H17N3O4S/c1-11-8-9-14(10-15(11)26(19,23)24)20-17(22)16-12(2)25-18(21-16)13-6-4-3-5-7-13/h3-10H,1-2H3,(H,20,22)(H2,19,23,24)

> <PUBCHEM_IUPAC_INCHIKEY>
FWHQCJZIXZNXHZ-UHFFFAOYSA-N

> <PUBCHEM_XLOGP3_AA>
2.5

> <PUBCHEM_EXACT_MASS>
371.093977

> <PUBCHEM_MOLECULAR_FORMULA>
C18H17N3O4S

> <PUBCHEM_MOLECULAR_WEIGHT>
371.41028

> <PUBCHEM_OPENEYE_CAN_SMILES>
CC1=C(C=C(C=C1)NC(=O)C2=C(OC(=N2)C3=CC=CC=C3)C)S(=O)(=O)N

> <PUBCHEM_OPENEYE_ISO_SMILES>
CC1=C(C=C(C=C1)NC(=O)C2=C(OC(=N2)C3=CC=CC=C3)C)S(=O)(=O)N

> <PUBCHEM_CACTVS_TPSA>
124

> <PUBCHEM_MONOISOTOPIC_WEIGHT>
371.093977

> <PUBCHEM_TOTAL_CHARGE>
0

> <PUBCHEM_HEAVY_ATOM_COUNT>
26

> <PUBCHEM_ATOM_DEF_STEREO_COUNT>
0

> <PUBCHEM_ATOM_UDEF_STEREO_COUNT>
0

> <PUBCHEM_BOND_DEF_STEREO_COUNT>
0

> <PUBCHEM_BOND_UDEF_STEREO_COUNT>
0

> <PUBCHEM_ISOTOPIC_ATOM_COUNT>
0

> <PUBCHEM_COMPONENT_COUNT>
1

> <PUBCHEM_CACTVS_TAUTO_COUNT>
2

> <PUBCHEM_COORDINATE_TYPE>
1

> <PUBCHEM_BONDANNOTATIONS>
10  13  8

$$$$
